ITEM: TIMESTEP
1000
ITEM: NUMBER OF ATOMS
690
ITEM: BOX BOUNDS ff ff ff
-4.0000000000000000e+01 4.0000000000000000e+01
-4.0000000000000000e+01 4.0000000000000000e+01
-4.0000000000000000e+01 4.0000000000000000e+01
ITEM: ATOMS id type xs ys zs
24 1 0.435759 0.493668 0.192168
1 1 0.440724 0.477215 0.195562
25 1 0.436471 0.488117 0.162009
2 1 0.442443 0.471881 0.165729
3 1 0.44546 0.467048 0.18248
5 1 0.456151 0.453436 0.186119
4 1 0.448142 0.461259 0.152748
6 1 0.458741 0.447954 0.156989
8 1 0.4646 0.445151 0.173151
9 1 0.479681 0.437151 0.176736
10 1 0.485358 0.435996 0.193089
11 1 0.490804 0.433532 0.164004
23 1 0.435191 0.499615 0.17542
12 1 0.502747 0.434663 0.196083
13 1 0.508121 0.435258 0.166007
14 1 0.514114 0.436171 0.182716
16 1 0.530163 0.442571 0.185619
15 1 0.518475 0.439736 0.152343
17 1 0.534706 0.445481 0.155663
19 1 0.539273 0.448807 0.172458
20 1 0.550252 0.462179 0.175984
21 1 0.553732 0.46705 0.192663
27 1 0.560792 0.482847 0.195698
22 1 0.555465 0.472392 0.162365
30 1 0.561066 0.488849 0.165323
32 1 0.562738 0.494131 0.181988
33 1 0.562704 0.500321 0.151909
44 1 0.497039 0.563387 0.172015
43 1 0.48015 0.560826 0.175624
42 1 0.474762 0.558722 0.192459
40 1 0.45971 0.550203 0.195989
41 1 0.469778 0.556383 0.162459
39 1 0.456322 0.545763 0.166302
38 1 0.451925 0.541785 0.182868
36 1 0.44274 0.52718 0.186242
37 1 0.449046 0.537279 0.153423
34 1 0.440802 0.522533 0.156697
26 1 0.439257 0.516485 0.172818
28 1 0.561616 0.51749 0.155654
55 1 0.559173 0.523075 0.172061
54 1 0.55172 0.538586 0.175435
53 1 0.547935 0.542412 0.192017
51 1 0.534766 0.553576 0.195607
52 1 0.544662 0.548077 0.162289
50 1 0.530083 0.557217 0.165602
49 1 0.52475 0.558885 0.182316
47 1 0.508116 0.562896 0.185366
48 1 0.519669 0.562674 0.152557
45 1 0.502792 0.565192 0.155451
31 1 0.561944 0.511477 0.185403
130 1 0.434535 0.493845 0.285276
81 1 0.436816 0.488438 0.255328
133 1 0.437929 0.482882 0.27184
112 1 0.44582 0.467613 0.275272
83 1 0.439352 0.482866 0.225475
56 1 0.440581 0.477451 0.242266
58 1 0.449205 0.462569 0.245494
114 1 0.452816 0.457932 0.262047
116 1 0.465017 0.445598 0.265395
117 1 0.469643 0.442842 0.282166
118 1 0.485053 0.435383 0.285893
57 1 0.443898 0.472413 0.212115
59 1 0.452781 0.457941 0.216023
60 1 0.456713 0.453966 0.232593
61 1 0.47002 0.443143 0.236046
63 1 0.474901 0.439664 0.25226
65 1 0.491087 0.433244 0.255538
120 1 0.49558 0.43098 0.272433
7 1 0.460538 0.449643 0.202854
62 1 0.474955 0.440137 0.206339
64 1 0.480483 0.438409 0.222932
66 1 0.497583 0.434504 0.225945
113 1 0.449017 0.462963 0.292266
115 1 0.460754 0.450103 0.295595
78 1 0.436362 0.499754 0.222094
67 1 0.503384 0.434027 0.242501
69 1 0.520478 0.437498 0.245101
123 1 0.527888 0.437673 0.261101
125 1 0.539967 0.449506 0.265529
126 1 0.543153 0.454332 0.28243
127 1 0.554146 0.467601 0.285596
68 1 0.50883 0.43518 0.212816
70 1 0.52523 0.440178 0.215624
71 1 0.530198 0.443137 0.232099
72 1 0.543926 0.453418 0.235677
74 1 0.547763 0.458118 0.252473
76 1 0.55696 0.472699 0.255696
129 1 0.559215 0.478037 0.272215
137 1 0.563932 0.494627 0.274861
18 1 0.535214 0.445498 0.202614
73 1 0.547652 0.457594 0.205913
75 1 0.551519 0.461961 0.222559
77 1 0.559427 0.477658 0.225655
84 1 0.561292 0.483447 0.24236
85 1 0.56231 0.48854 0.212056
122 1 0.520181 0.438251 0.293596
124 1 0.534883 0.447141 0.296402
149 1 0.497419 0.563831 0.265999
148 1 0.491662 0.563578 0.28291
147 1 0.47504 0.558293 0.286138
99 1 0.490883 0.562286 0.235596
98 1 0.485877 0.561914 0.252573
95 1 0.469476 0.55651 0.255928
145 1 0.464327 0.553835 0.272969
143 1 0.451257 0.542199 0.27604
97 1 0.485507 0.562108 0.205545
96 1 0.479504 0.560488 0.222263
94 1 0.463705 0.553974 0.225609
93 1 0.459586 0.550503 0.242396
91 1 0.448639 0.537366 0.245706
141 1 0.445858 0.532613 0.262404
134 1 0.438708 0.516888 0.265385
132 1 0.43657 0.510891 0.282147
92 1 0.454416 0.546904 0.212472
90 1 0.443717 0.533219 0.215684
89 1 0.441621 0.527862 0.232372
82 1 0.43623 0.511287 0.235172
80 1 0.435684 0.505576 0.251829
35 1 0.43958 0.522307 0.202432
79 1 0.436389 0.505457 0.205678
142 1 0.447343 0.537558 0.292651
140 1 0.439583 0.522035 0.295545
88 1 0.564603 0.500383 0.245326
138 1 0.564347 0.506285 0.261568
159 1 0.561559 0.522948 0.264556
158 1 0.559743 0.528334 0.280927
157 1 0.549904 0.542505 0.284636
86 1 0.563857 0.511696 0.231635
110 1 0.558422 0.528247 0.234846
109 1 0.555677 0.533534 0.251422
106 1 0.544306 0.546625 0.254716
155 1 0.540507 0.550351 0.271575
153 1 0.52601 0.559574 0.275413
29 1 0.560989 0.516773 0.201963
108 1 0.553984 0.53254 0.205238
107 1 0.551428 0.537606 0.22158
105 1 0.53903 0.549885 0.224957
104 1 0.534764 0.553336 0.241559
102 1 0.519519 0.560886 0.245326
151 1 0.514611 0.563112 0.262152
103 1 0.529715 0.556611 0.212067
101 1 0.513437 0.562915 0.215322
100 1 0.508013 0.563096 0.232216
46 1 0.502492 0.564002 0.20207
87 1 0.563276 0.505672 0.215396
139 1 0.565079 0.50017 0.291555
135 1 0.563861 0.517498 0.294208
152 1 0.520502 0.560858 0.292238
150 1 0.503418 0.56418 0.296161
237 1 0.436235 0.488535 0.395355
239 1 0.437283 0.48266 0.36597
214 1 0.43895 0.476725 0.382317
216 1 0.447458 0.461822 0.385546
184 1 0.43635 0.494226 0.332517
160 1 0.441128 0.477595 0.335996
161 1 0.442416 0.472355 0.35278
163 1 0.452138 0.458103 0.355876
218 1 0.455643 0.453803 0.372506
220 1 0.469432 0.443656 0.375752
221 1 0.474291 0.441172 0.392658
222 1 0.490931 0.436798 0.396069
131 1 0.435664 0.488239 0.30236
111 1 0.44284 0.472674 0.305794
162 1 0.446545 0.46828 0.322351
164 1 0.456732 0.454542 0.325548
165 1 0.460536 0.45019 0.342215
167 1 0.474837 0.440778 0.345723
169 1 0.479875 0.438965 0.362374
223 1 0.496877 0.436406 0.365818
166 1 0.465012 0.446808 0.312171
168 1 0.479969 0.438059 0.315567
170 1 0.485407 0.437292 0.332236
119 1 0.491316 0.434447 0.302292
182 1 0.435264 0.499717 0.315694
183 1 0.435177 0.49985 0.362702
225 1 0.502457 0.43704 0.382941
227 1 0.519938 0.4403 0.386055
171 1 0.502362 0.436394 0.336095
172 1 0.5084 0.437681 0.352616
174 1 0.524794 0.443048 0.355846
229 1 0.5301 0.445245 0.372512
231 1 0.543892 0.455621 0.37577
232 1 0.547877 0.459291 0.392455
233 1 0.55927 0.472467 0.395891
121 1 0.508584 0.434584 0.306415
173 1 0.513961 0.437418 0.323044
175 1 0.529524 0.445065 0.326053
176 1 0.534391 0.44912 0.342701
178 1 0.5477 0.460363 0.345802
180 1 0.551779 0.464586 0.362552
234 1 0.561979 0.478707 0.365676
242 1 0.565849 0.481788 0.382265
177 1 0.539706 0.451329 0.313023
179 1 0.552066 0.463402 0.316053
181 1 0.555333 0.469257 0.332417
187 1 0.563726 0.484559 0.335806
188 1 0.566798 0.489794 0.352772
128 1 0.557965 0.472629 0.302304
136 1 0.5643 0.488866 0.305334
190 1 0.566207 0.494949 0.3218
255 1 0.491988 0.562346 0.375212
254 1 0.486286 0.561384 0.391897
253 1 0.470133 0.555541 0.39519
201 1 0.486367 0.562039 0.345561
200 1 0.480787 0.56046 0.362008
251 1 0.464839 0.55319 0.365445
250 1 0.460274 0.549848 0.382205
248 1 0.447452 0.53803 0.38494
202 1 0.497653 0.563852 0.312653
199 1 0.480468 0.560239 0.316014
198 1 0.475303 0.558484 0.332677
197 1 0.460229 0.549915 0.335832
196 1 0.455728 0.546223 0.352398
194 1 0.444608 0.532792 0.355451
246 1 0.441485 0.527847 0.372087
238 1 0.436404 0.511361 0.375722
236 1 0.435741 0.505775 0.392101
146 1 0.469748 0.555674 0.302668
144 1 0.455385 0.545818 0.306078
195 1 0.451497 0.541651 0.322789
193 1 0.441589 0.52724 0.325981
192 1 0.43943 0.52217 0.342658
185 1 0.435416 0.505541 0.346116
186 1 0.437647 0.516526 0.312122
243 1 0.571306 0.514665 0.372324
265 1 0.56224 0.529883 0.375837
264 1 0.558952 0.534115 0.393286
263 1 0.54889 0.547923 0.397461
212 1 0.559098 0.535662 0.34518
211 1 0.555484 0.538806 0.362149
261 1 0.542009 0.549251 0.364391
259 1 0.520031 0.56364 0.385752
213 1 0.563298 0.523503 0.310632
210 1 0.554573 0.538783 0.314294
209 1 0.550917 0.542975 0.331461
208 1 0.536533 0.552709 0.334895
207 1 0.532067 0.555785 0.35173
205 1 0.515658 0.562091 0.355625
257 1 0.509451 0.563831 0.372068
156 1 0.545997 0.54676 0.301233
154 1 0.531334 0.555582 0.305236
206 1 0.526384 0.557999 0.321687
204 1 0.509733 0.562968 0.325716
203 1 0.503953 0.563663 0.34224
191 1 0.573366 0.506008 0.356928
189 1 0.567394 0.512297 0.323684
288 1 0.43473 0.494472 0.425524
240 1 0.437145 0.48319 0.412228
215 1 0.44406 0.467077 0.415349
217 1 0.451068 0.457662 0.402105
219 1 0.464263 0.44686 0.405753
273 1 0.469093 0.444347 0.422368
275 1 0.485528 0.439054 0.426148
224 1 0.496401 0.436833 0.412688
340 1 0.434788 0.493737 0.472206
316 1 0.438598 0.476574 0.475315
318 1 0.440944 0.471753 0.491899
320 1 0.449533 0.45705 0.494551
289 1 0.435799 0.488244 0.441668
267 1 0.440553 0.471611 0.445333
268 1 0.442876 0.46602 0.461955
270 1 0.453693 0.452288 0.465604
321 1 0.457709 0.448137 0.482224
323 1 0.473068 0.439917 0.486255
269 1 0.446527 0.462032 0.432123
271 1 0.459465 0.450257 0.435675
272 1 0.46334 0.446143 0.452313
274 1 0.479534 0.44019 0.456182
325 1 0.484523 0.438084 0.472852
276 1 0.49086 0.438818 0.44303
226 1 0.513876 0.43873 0.415729
228 1 0.524648 0.442698 0.402716
230 1 0.539459 0.451632 0.405715
283 1 0.543914 0.455303 0.422517
285 1 0.555906 0.468178 0.426227
235 1 0.562171 0.478167 0.412822
244 1 0.567328 0.494837 0.416879
327 1 0.502021 0.437932 0.476358
329 1 0.507653 0.438763 0.493099
331 1 0.524472 0.44313 0.496388
277 1 0.508191 0.438971 0.446115
278 1 0.513696 0.440219 0.463023
280 1 0.529877 0.446222 0.466221
333 1 0.534741 0.44941 0.483066
335 1 0.548053 0.46019 0.48653
279 1 0.519333 0.441171 0.432653
281 1 0.535032 0.448537 0.436331
282 1 0.539504 0.452125 0.453077
284 1 0.55207 0.463836 0.456305
337 1 0.555042 0.468749 0.472987
344 1 0.562597 0.484366 0.476379
347 1 0.564585 0.489761 0.493197
286 1 0.558782 0.473206 0.442825
293 1 0.565065 0.489413 0.446328
295 1 0.565798 0.495352 0.462881
256 1 0.497337 0.562272 0.4057
304 1 0.491806 0.561507 0.42231
302 1 0.474883 0.558014 0.426105
252 1 0.464563 0.553714 0.41185
249 1 0.450076 0.543768 0.414349
247 1 0.443035 0.534008 0.401531
241 1 0.436193 0.517832 0.405216
290 1 0.433784 0.511774 0.422174
361 1 0.486022 0.561902 0.486298
305 1 0.498051 0.562585 0.45264
303 1 0.480991 0.560085 0.45636
359 1 0.475126 0.558543 0.473078
356 1 0.459918 0.549704 0.476744
355 1 0.45544 0.545578 0.493204
353 1 0.443667 0.532757 0.496195
301 1 0.470009 0.555905 0.443093
300 1 0.454733 0.548317 0.447483
299 1 0.450334 0.542648 0.463543
298 1 0.440227 0.528233 0.466073
351 1 0.438068 0.522555 0.482764
341 1 0.43437 0.505588 0.4862
297 1 0.434367 0.52282 0.435974
291 1 0.435662 0.517249 0.452398
287 1 0.4348 0.499687 0.455118
245 1 0.568858 0.506904 0.404294
266 1 0.563779 0.52352 0.40661
314 1 0.560899 0.528485 0.423363
312 1 0.549426 0.541766 0.42676
262 1 0.541703 0.550082 0.413314
260 1 0.525522 0.557149 0.415985
258 1 0.514711 0.561758 0.402431
346 1 0.565916 0.518549 0.483103
373 1 0.558943 0.534698 0.485725
296 1 0.566791 0.50049 0.433243
292 1 0.564984 0.517471 0.43649
315 1 0.563018 0.523615 0.45298
313 1 0.553837 0.538403 0.456185
371 1 0.550323 0.543107 0.472811
368 1 0.53599 0.553086 0.476117
367 1 0.531057 0.555966 0.492909
365 1 0.514434 0.560562 0.49631
311 1 0.544735 0.545586 0.443158
310 1 0.530426 0.554823 0.446104
309 1 0.525644 0.557732 0.462802
307 1 0.509117 0.562326 0.46628
363 1 0.50327 0.562774 0.483046
308 1 0.519653 0.558377 0.432655
306 1 0.502965 0.561825 0.435961
349 1 0.567762 0.50698 0.49602
294 1 0.566378 0.512716 0.466518
394 1 0.434359 0.49406 0.566343
396 1 0.437125 0.488101 0.536625
398 1 0.437134 0.482407 0.553298
374 1 0.443624 0.466737 0.557075
343 1 0.437667 0.482278 0.506136
317 1 0.439305 0.476801 0.523191
319 1 0.444487 0.460725 0.52739
376 1 0.449577 0.456979 0.543831
378 1 0.463214 0.446055 0.547005
379 1 0.46881 0.444013 0.563353
381 1 0.485173 0.438458 0.566386
322 1 0.467838 0.438616 0.516785
380 1 0.473091 0.43974 0.533567
382 1 0.490693 0.437091 0.536426
383 1 0.496459 0.436611 0.553176
324 1 0.478923 0.437544 0.503296
326 1 0.496348 0.437066 0.506146
447 1 0.434819 0.488208 0.582504
424 1 0.441632 0.472839 0.586814
375 1 0.44749 0.462824 0.573689
377 1 0.460317 0.451221 0.576858
429 1 0.465492 0.448958 0.593308
431 1 0.480869 0.441077 0.59617
433 1 0.491607 0.438362 0.582391
339 1 0.434839 0.499679 0.503114
384 1 0.514189 0.438137 0.555808
328 1 0.502245 0.43713 0.522787
330 1 0.51906 0.440713 0.52635
386 1 0.524651 0.442653 0.542654
388 1 0.539841 0.45137 0.546061
389 1 0.544921 0.454463 0.562621
391 1 0.556058 0.467683 0.566132
332 1 0.52945 0.445607 0.513226
334 1 0.543537 0.455625 0.516005
390 1 0.547555 0.460133 0.532785
392 1 0.558336 0.473543 0.536295
393 1 0.560898 0.478111 0.552962
401 1 0.564783 0.494594 0.556287
336 1 0.551821 0.464308 0.503165
338 1 0.561573 0.478523 0.506611
345 1 0.563751 0.483884 0.523462
435 1 0.509147 0.438133 0.585491
385 1 0.520389 0.439474 0.57204
387 1 0.536493 0.446712 0.575785
440 1 0.541317 0.450468 0.592067
442 1 0.552798 0.462712 0.59654
444 1 0.558342 0.472426 0.583072
451 1 0.563663 0.488838 0.586603
412 1 0.497802 0.565246 0.545741
411 1 0.492592 0.566689 0.562331
362 1 0.491595 0.562578 0.516203
410 1 0.485783 0.563542 0.532962
409 1 0.469014 0.557671 0.535881
408 1 0.462937 0.554139 0.552134
407 1 0.450949 0.541945 0.555778
360 1 0.480366 0.560757 0.502782
358 1 0.464783 0.552895 0.505893
357 1 0.460128 0.549824 0.522786
354 1 0.448426 0.536646 0.526125
405 1 0.444902 0.531952 0.542891
399 1 0.438135 0.516219 0.546499
397 1 0.435318 0.511502 0.56331
352 1 0.441053 0.527496 0.513178
342 1 0.436009 0.510972 0.516548
395 1 0.436367 0.50502 0.533109
465 1 0.496107 0.565539 0.592921
463 1 0.479078 0.562675 0.597064
461 1 0.467457 0.558989 0.584296
458 1 0.454845 0.546599 0.586602
406 1 0.446963 0.538154 0.57268
404 1 0.437775 0.523595 0.576198
448 1 0.433767 0.520064 0.59284
402 1 0.566235 0.506596 0.543322
422 1 0.562241 0.523664 0.547238
421 1 0.5589 0.528025 0.563938
419 1 0.548773 0.541971 0.567278
348 1 0.570191 0.511556 0.512672
420 1 0.557637 0.534816 0.534683
418 1 0.544788 0.545882 0.537233
417 1 0.539991 0.549384 0.553788
416 1 0.524843 0.558244 0.557049
372 1 0.555114 0.54066 0.501677
370 1 0.541257 0.550613 0.50602
369 1 0.53626 0.55263 0.523216
366 1 0.520189 0.559285 0.526598
414 1 0.514528 0.562099 0.543021
364 1 0.508854 0.561403 0.513089
350 1 0.568032 0.500684 0.526378
403 1 0.564623 0.50015 0.57305
400 1 0.562614 0.517014 0.576596
476 1 0.561163 0.522085 0.593342
474 1 0.552275 0.537039 0.596993
472 1 0.544643 0.546106 0.583885
469 1 0.530166 0.55594 0.587326
415 1 0.519631 0.560386 0.573935
413 1 0.50283 0.564804 0.576546
500 1 0.436541 0.489197 0.676762
555 1 0.438681 0.48369 0.693528
532 1 0.445838 0.467981 0.696689
502 1 0.437821 0.483098 0.646962
477 1 0.439657 0.477512 0.66355
478 1 0.448587 0.462481 0.666628
480 1 0.452336 0.458099 0.683295
482 1 0.465375 0.446978 0.686788
445 1 0.433328 0.494298 0.614611
423 1 0.439383 0.478138 0.61719
425 1 0.442373 0.472839 0.633859
479 1 0.452204 0.458414 0.636912
481 1 0.456325 0.454028 0.653506
483 1 0.470984 0.444778 0.656557
484 1 0.475901 0.441671 0.673453
486 1 0.492445 0.43631 0.676656
540 1 0.497747 0.434831 0.693551
426 1 0.444567 0.468379 0.603717
427 1 0.45608 0.455376 0.606748
428 1 0.460411 0.450586 0.623239
430 1 0.475595 0.441541 0.625897
485 1 0.481361 0.439833 0.642652
487 1 0.498473 0.435518 0.645868
432 1 0.48627 0.438035 0.612295
542 1 0.514908 0.435576 0.697113
488 1 0.503656 0.434783 0.663071
489 1 0.520352 0.435471 0.667143
491 1 0.526502 0.437758 0.683669
492 1 0.541777 0.447394 0.686903
434 1 0.503362 0.435976 0.615037
436 1 0.509574 0.435523 0.631634
490 1 0.526148 0.43985 0.634024
493 1 0.549259 0.449793 0.65713
494 1 0.55095 0.455363 0.673686
496 1 0.557867 0.471259 0.676724
550 1 0.559362 0.476685 0.69311
559 1 0.562824 0.493589 0.696816
437 1 0.514939 0.439242 0.60199
438 1 0.5318 0.444085 0.605155
439 1 0.537536 0.445241 0.621808
441 1 0.550933 0.45615 0.626528
495 1 0.554597 0.460194 0.643461
497 1 0.560764 0.476615 0.646747
504 1 0.562143 0.481785 0.663444
443 1 0.556183 0.466442 0.613303
449 1 0.562307 0.48264 0.617027
452 1 0.563046 0.488185 0.633694
454 1 0.56429 0.494065 0.603644
508 1 0.563936 0.499026 0.666764
519 1 0.497136 0.56452 0.686764
518 1 0.491151 0.563282 0.656739
517 1 0.485816 0.56216 0.673667
515 1 0.469296 0.556405 0.676829
565 1 0.464609 0.55402 0.693503
563 1 0.451748 0.542704 0.696974
464 1 0.484815 0.563132 0.626635
516 1 0.479471 0.561508 0.643428
514 1 0.46351 0.554413 0.646795
513 1 0.459522 0.550094 0.663502
512 1 0.44808 0.537354 0.666796
511 1 0.444628 0.532889 0.683614
503 1 0.436687 0.517653 0.686902
462 1 0.473944 0.559602 0.613516
460 1 0.459408 0.550486 0.616776
459 1 0.454603 0.547075 0.633348
510 1 0.443603 0.533615 0.63678
509 1 0.441085 0.528041 0.6534
501 1 0.434839 0.511959 0.657196
499 1 0.433884 0.506231 0.673771
457 1 0.451131 0.542262 0.603502
456 1 0.440109 0.529156 0.606766
455 1 0.437957 0.523662 0.623196
446 1 0.433801 0.506655 0.62709
498 1 0.434067 0.500217 0.643817
507 1 0.563005 0.504925 0.683415
530 1 0.558681 0.521502 0.687066
505 1 0.562586 0.510846 0.65344
529 1 0.557301 0.527476 0.657042
528 1 0.553884 0.531925 0.673886
526 1 0.544072 0.545996 0.676829
575 1 0.539881 0.549958 0.693475
573 1 0.525235 0.559498 0.696792
450 1 0.562369 0.516373 0.623473
475 1 0.555603 0.532478 0.626977
527 1 0.551936 0.53768 0.643708
525 1 0.540021 0.550218 0.64667
524 1 0.535408 0.553555 0.663564
523 1 0.519569 0.560786 0.66639
522 1 0.514158 0.562652 0.683062
473 1 0.548197 0.54143 0.613585
471 1 0.535123 0.553088 0.616571
470 1 0.530709 0.556514 0.633216
521 1 0.514118 0.562607 0.636467
520 1 0.508604 0.563092 0.653215
468 1 0.525101 0.559314 0.603467
467 1 0.508123 0.564426 0.606208
466 1 0.502277 0.564919 0.62295
506 1 0.563609 0.505202 0.636738
453 1 0.56436 0.511254 0.606703
552 1 0.435849 0.495167 0.706914
536 1 0.469979 0.443363 0.703445
538 1 0.486199 0.437215 0.706827
606 1 0.43936 0.483021 0.786782
604 1 0.435462 0.494236 0.753207
581 1 0.440028 0.477723 0.756665
582 1 0.443153 0.47258 0.77338
584 1 0.452799 0.458226 0.776661
586 1 0.456914 0.453998 0.793305
641 1 0.470379 0.443304 0.796596
553 1 0.436304 0.488679 0.723326
531 1 0.441529 0.472505 0.726774
583 1 0.445007 0.467365 0.743451
585 1 0.456273 0.454015 0.74666
587 1 0.461043 0.450229 0.763263
588 1 0.475453 0.440263 0.766415
589 1 0.480923 0.438212 0.782976
591 1 0.4978 0.435135 0.786685
533 1 0.447995 0.462631 0.713385
534 1 0.4599 0.450022 0.716586
535 1 0.464948 0.446707 0.733309
537 1 0.48044 0.438381 0.736592
590 1 0.48621 0.43706 0.753139
539 1 0.491688 0.435701 0.723517
612 1 0.564822 0.493634 0.743394
558 1 0.563438 0.48815 0.726829
549 1 0.558263 0.471908 0.723603
609 1 0.563927 0.487817 0.77372
607 1 0.562915 0.481916 0.756977
601 1 0.555616 0.466387 0.753714
547 1 0.552609 0.461742 0.737151
546 1 0.544745 0.452852 0.703235
548 1 0.554939 0.466619 0.70704
545 1 0.540406 0.449738 0.733501
592 1 0.503556 0.435241 0.756501
593 1 0.508951 0.43553 0.773216
595 1 0.525711 0.439989 0.776431
597 1 0.530787 0.442382 0.79305
652 1 0.5443 0.452846 0.796632
541 1 0.509088 0.435232 0.72644
594 1 0.51479 0.436947 0.743295
596 1 0.531119 0.44301 0.74702
598 1 0.535606 0.446366 0.763607
599 1 0.54855 0.45728 0.766766
600 1 0.552277 0.461122 0.783312
602 1 0.561036 0.47619 0.786811
543 1 0.520678 0.437928 0.713617
544 1 0.535775 0.446326 0.716655
560 1 0.563479 0.499318 0.713411
569 1 0.491582 0.563932 0.703357
567 1 0.474616 0.559881 0.706723
554 1 0.435603 0.512291 0.703666
677 1 0.491342 0.564175 0.796421
624 1 0.48455 0.563643 0.766503
623 1 0.480169 0.561163 0.783273
621 1 0.464772 0.553145 0.786629
570 1 0.497138 0.564481 0.733148
568 1 0.479799 0.56249 0.736451
622 1 0.473528 0.560192 0.75312
620 1 0.458719 0.551118 0.756872
619 1 0.455252 0.546472 0.773506
617 1 0.44441 0.532862 0.776909
616 1 0.442147 0.527822 0.793794
661 1 0.437508 0.511138 0.796735
566 1 0.469291 0.557385 0.723303
564 1 0.455312 0.547252 0.726966
618 1 0.45105 0.542761 0.743496
615 1 0.441827 0.528367 0.746636
614 1 0.439185 0.522957 0.763217
605 1 0.435241 0.505812 0.766615
603 1 0.43571 0.499851 0.783445
562 1 0.447935 0.538425 0.713427
561 1 0.439816 0.523383 0.717023
556 1 0.438071 0.517432 0.73356
551 1 0.435434 0.500328 0.736511
610 1 0.562465 0.511038 0.746797
613 1 0.563939 0.505007 0.776527
579 1 0.55732 0.526958 0.703467
577 1 0.547976 0.541473 0.706912
611 1 0.563341 0.510636 0.7929
688 1 0.558471 0.527195 0.796445
608 1 0.560957 0.516418 0.763519
635 1 0.553924 0.532019 0.766709
634 1 0.551026 0.537008 0.783358
632 1 0.538978 0.549567 0.786995
557 1 0.561191 0.51644 0.717098
580 1 0.559087 0.522404 0.733557
578 1 0.550772 0.53703 0.737217
633 1 0.547209 0.541738 0.753473
631 1 0.53427 0.553077 0.756845
630 1 0.529509 0.556323 0.773631
628 1 0.513464 0.563205 0.77647
627 1 0.508492 0.564404 0.793202
576 1 0.543975 0.545873 0.723845
574 1 0.53009 0.556287 0.727246
629 1 0.524503 0.558806 0.743533
626 1 0.508204 0.563963 0.74651
625 1 0.502151 0.564973 0.76316
572 1 0.519957 0.561243 0.713644
571 1 0.503053 0.564126 0.716599
658 1 0.436446 0.49376 0.846991
660 1 0.438096 0.488167 0.817073
663 1 0.438396 0.482578 0.833883
637 1 0.443657 0.466179 0.836667
636 1 0.441611 0.477449 0.803402
638 1 0.448845 0.462179 0.806507
639 1 0.451082 0.456809 0.823199
640 1 0.464838 0.446047 0.826825
642 1 0.470485 0.44381 0.843451
644 1 0.485968 0.436432 0.846684
643 1 0.475195 0.440831 0.81339
645 1 0.491646 0.436774 0.816563
646 1 0.497305 0.435364 0.833078
648 1 0.514457 0.436489 0.836117
647 1 0.503091 0.435593 0.803283
649 1 0.520067 0.43804 0.806663
650 1 0.525485 0.43989 0.823223
651 1 0.539745 0.449375 0.826516
653 1 0.544171 0.454313 0.842701
655 1 0.555259 0.467201 0.846022
654 1 0.548139 0.457271 0.813199
656 1 0.558098 0.471356 0.816214
657 1 0.561174 0.476681 0.832688
666 1 0.565486 0.493202 0.835734
665 1 0.562013 0.482159 0.803237
668 1 0.563595 0.499042 0.806125
679 1 0.497445 0.565594 0.827161
678 1 0.491383 0.564716 0.84392
675 1 0.474837 0.560085 0.846577
676 1 0.486328 0.563828 0.813091
674 1 0.469975 0.557451 0.816889
673 1 0.464628 0.555226 0.833366
671 1 0.451994 0.543317 0.836202
672 1 0.460503 0.549936 0.803499
670 1 0.448382 0.537321 0.807344
669 1 0.445294 0.532917 0.823836
664 1 0.439071 0.516695 0.82724
662 1 0.43749 0.510696 0.843892
659 1 0.43711 0.50541 0.813426
667 1 0.563522 0.50495 0.822701
690 1 0.560446 0.522092 0.826062
689 1 0.557998 0.527765 0.84258
686 1 0.548715 0.542023 0.846155
687 1 0.555853 0.532943 0.812788
685 1 0.544414 0.545999 0.816438
684 1 0.540079 0.549699 0.832995
682 1 0.525669 0.5592 0.836731
683 1 0.535262 0.553414 0.803377
681 1 0.520068 0.561846 0.806617
680 1 0.514908 0.563972 0.823462
ITEM: TIMESTEP
2000
ITEM: NUMBER OF ATOMS
690
ITEM: BOX BOUNDS ff ff ff
-4.0000000000000000e+01 4.0000000000000000e+01
-4.0000000000000000e+01 4.0000000000000000e+01
-4.0000000000000000e+01 4.0000000000000000e+01
ITEM: ATOMS id type xs ys zs
24 1 0.436774 0.493973 0.19231
1 1 0.440933 0.477486 0.195648
25 1 0.436593 0.487359 0.162771
2 1 0.442636 0.471284 0.166071
3 1 0.445799 0.467187 0.1828
5 1 0.456019 0.453169 0.186215
4 1 0.447598 0.460246 0.152925
6 1 0.458892 0.447344 0.156394
8 1 0.464102 0.444125 0.172971
9 1 0.479464 0.436063 0.176324
10 1 0.485729 0.435789 0.192936
11 1 0.490185 0.433611 0.162579
23 1 0.436341 0.499309 0.175599
12 1 0.502844 0.433785 0.196306
13 1 0.50718 0.435352 0.166582
14 1 0.51381 0.436093 0.183086
16 1 0.530031 0.442491 0.185679
15 1 0.518041 0.438688 0.15361
17 1 0.533229 0.446693 0.156293
19 1 0.538782 0.449368 0.172676
20 1 0.550014 0.462615 0.175489
21 1 0.553563 0.467337 0.191928
27 1 0.559822 0.483254 0.195634
22 1 0.554492 0.473383 0.162254
30 1 0.560559 0.489189 0.166039
32 1 0.561459 0.494625 0.182211
33 1 0.56216 0.500514 0.152912
44 1 0.497018 0.564415 0.172601
43 1 0.480177 0.56003 0.17594
42 1 0.474264 0.558336 0.192557
40 1 0.45939 0.550142 0.196011
41 1 0.470038 0.555873 0.162727
39 1 0.456303 0.545445 0.165751
38 1 0.452327 0.541472 0.182516
36 1 0.442466 0.527252 0.185764
37 1 0.449722 0.536695 0.152364
34 1 0.44151 0.521357 0.155333
26 1 0.43805 0.516454 0.17207
28 1 0.561696 0.51781 0.155561
55 1 0.560011 0.523325 0.17198
54 1 0.552159 0.538439 0.175621
53 1 0.547577 0.542329 0.192015
51 1 0.53473 0.553699 0.195486
52 1 0.545606 0.548502 0.162622
50 1 0.531244 0.558243 0.165578
49 1 0.524838 0.559317 0.18218
47 1 0.508091 0.5633 0.185934
48 1 0.520848 0.563417 0.152436
45 1 0.503733 0.564936 0.155921
31 1 0.561798 0.511776 0.185387
130 1 0.435611 0.494371 0.285338
81 1 0.436677 0.488222 0.25562
133 1 0.437647 0.482731 0.27211
112 1 0.44523 0.467583 0.275598
83 1 0.439059 0.483583 0.225444
56 1 0.44122 0.478016 0.242207
58 1 0.449366 0.462629 0.245557
114 1 0.452429 0.458147 0.262611
116 1 0.465114 0.446297 0.265926
117 1 0.469917 0.442945 0.282405
118 1 0.484902 0.434379 0.285684
57 1 0.442988 0.472565 0.212181
59 1 0.453216 0.458558 0.215855
60 1 0.457039 0.453843 0.232436
61 1 0.47036 0.442915 0.235917
63 1 0.474684 0.440098 0.252526
65 1 0.490751 0.43377 0.255689
120 1 0.495467 0.429978 0.272006
7 1 0.460964 0.449833 0.202794
62 1 0.47543 0.44029 0.206116
64 1 0.480314 0.43779 0.222602
66 1 0.497372 0.434755 0.226127
113 1 0.449262 0.463097 0.292022
115 1 0.461035 0.450275 0.295543
78 1 0.43555 0.500506 0.222336
67 1 0.503102 0.433445 0.242797
69 1 0.520499 0.436072 0.245871
123 1 0.526721 0.438465 0.262424
125 1 0.539856 0.449747 0.265793
126 1 0.544138 0.453952 0.28252
127 1 0.554186 0.467924 0.285593
68 1 0.508632 0.435218 0.213087
70 1 0.524998 0.440434 0.216038
71 1 0.530612 0.442632 0.232726
72 1 0.543963 0.454033 0.235645
74 1 0.547388 0.458508 0.252471
76 1 0.556607 0.472865 0.255404
129 1 0.559335 0.478017 0.272072
137 1 0.564442 0.494607 0.275085
18 1 0.53472 0.446173 0.202741
73 1 0.547856 0.45787 0.205378
75 1 0.550836 0.462717 0.222111
77 1 0.559533 0.477661 0.225335
84 1 0.561469 0.483032 0.241952
85 1 0.562512 0.48863 0.211986
122 1 0.520041 0.43812 0.293877
124 1 0.534666 0.447376 0.29619
149 1 0.496802 0.563886 0.265712
148 1 0.491494 0.562996 0.282385
147 1 0.474852 0.559085 0.286085
99 1 0.490972 0.563233 0.236194
98 1 0.485312 0.561946 0.252728
95 1 0.469145 0.556184 0.256092
145 1 0.465054 0.553008 0.272991
143 1 0.451883 0.541241 0.2756
97 1 0.484965 0.561763 0.205907
96 1 0.479661 0.560399 0.223006
94 1 0.464091 0.553726 0.2264
93 1 0.459151 0.549943 0.242943
91 1 0.446966 0.537866 0.246217
141 1 0.444277 0.532435 0.26254
134 1 0.437572 0.516765 0.265915
132 1 0.43577 0.511319 0.282721
92 1 0.454946 0.546865 0.212828
90 1 0.444387 0.533145 0.21585
89 1 0.441678 0.528219 0.232655
82 1 0.437268 0.511494 0.235704
80 1 0.436218 0.505372 0.252302
35 1 0.439774 0.522577 0.202229
79 1 0.435511 0.506075 0.205741
142 1 0.448474 0.537206 0.292389
140 1 0.439094 0.522581 0.29597
88 1 0.564556 0.500018 0.245173
138 1 0.565282 0.506223 0.261729
159 1 0.561598 0.522914 0.264918
158 1 0.559388 0.52896 0.281314
157 1 0.54962 0.543022 0.285054
86 1 0.563272 0.511612 0.231531
110 1 0.557857 0.527936 0.235007
109 1 0.556189 0.533456 0.251541
106 1 0.544878 0.546282 0.255081
155 1 0.540748 0.550736 0.271607
153 1 0.525531 0.558623 0.275192
29 1 0.560898 0.517206 0.201939
108 1 0.554475 0.533287 0.205468
107 1 0.551241 0.537366 0.221997
105 1 0.539368 0.549792 0.225739
104 1 0.535065 0.553107 0.242502
102 1 0.519627 0.560755 0.245884
151 1 0.513817 0.562078 0.26224
103 1 0.530131 0.555571 0.212318
101 1 0.513546 0.561285 0.215644
100 1 0.508292 0.562982 0.232609
46 1 0.502254 0.562797 0.202711
87 1 0.564019 0.505953 0.215275
139 1 0.565735 0.500806 0.29166
135 1 0.564449 0.518269 0.294582
152 1 0.520644 0.561121 0.291865
150 1 0.503476 0.563506 0.295292
237 1 0.435989 0.488968 0.395614
239 1 0.438373 0.482746 0.365318
214 1 0.439561 0.477645 0.382224
216 1 0.447492 0.462379 0.385529
184 1 0.435491 0.49448 0.332141
160 1 0.441058 0.477867 0.335114
161 1 0.443195 0.47267 0.351818
163 1 0.452184 0.458159 0.355382
218 1 0.455173 0.453321 0.372247
220 1 0.469214 0.442779 0.375525
221 1 0.474761 0.440804 0.392577
222 1 0.491754 0.436635 0.395889
131 1 0.436664 0.4887 0.302328
111 1 0.443317 0.472755 0.305308
162 1 0.446203 0.467954 0.321808
164 1 0.457181 0.454536 0.32533
165 1 0.460959 0.450456 0.342066
167 1 0.474967 0.440615 0.346063
169 1 0.479962 0.438581 0.362449
223 1 0.496756 0.436096 0.36559
166 1 0.465466 0.446785 0.312062
168 1 0.480425 0.438006 0.315859
170 1 0.485662 0.436194 0.332607
119 1 0.491124 0.434202 0.302091
182 1 0.43484 0.500061 0.315754
183 1 0.43577 0.499896 0.362057
225 1 0.5024 0.435382 0.382516
227 1 0.519387 0.440229 0.385801
171 1 0.502897 0.435406 0.335789
172 1 0.508318 0.437045 0.352457
174 1 0.524356 0.442987 0.355759
229 1 0.529434 0.445658 0.372376
231 1 0.543584 0.455763 0.376014
232 1 0.548145 0.459533 0.392829
233 1 0.558916 0.47268 0.3961
121 1 0.508074 0.435517 0.306307
173 1 0.514294 0.437944 0.322555
175 1 0.529798 0.445218 0.325697
176 1 0.53432 0.448715 0.342746
178 1 0.547088 0.460323 0.345685
180 1 0.550873 0.464586 0.362355
234 1 0.561401 0.478319 0.365972
242 1 0.565396 0.481584 0.382509
177 1 0.539211 0.45191 0.312628
179 1 0.551115 0.46414 0.315998
181 1 0.555223 0.469137 0.332435
187 1 0.564139 0.484274 0.335729
188 1 0.566688 0.489418 0.353079
128 1 0.557591 0.473193 0.302219
136 1 0.564251 0.489302 0.304902
190 1 0.566799 0.494575 0.321277
255 1 0.49213 0.563414 0.375872
254 1 0.486184 0.561426 0.392546
253 1 0.46944 0.556527 0.395338
201 1 0.486317 0.562123 0.34556
200 1 0.481276 0.560669 0.362245
251 1 0.464956 0.553189 0.365228
250 1 0.459784 0.550467 0.382349
248 1 0.447379 0.53814 0.385564
202 1 0.497999 0.563402 0.311869
199 1 0.480941 0.560504 0.315794
198 1 0.47537 0.558506 0.332547
197 1 0.460227 0.549663 0.335448
196 1 0.455596 0.546201 0.352209
194 1 0.444641 0.532907 0.355493
246 1 0.442085 0.527843 0.372448
238 1 0.436509 0.511346 0.375767
236 1 0.435069 0.506059 0.3924
146 1 0.470127 0.556071 0.302647
144 1 0.455893 0.546056 0.305754
195 1 0.451631 0.542035 0.32214