ITEM: TIMESTEP
0
ITEM: NUMBER OF ATOMS
800
ITEM: BOX BOUNDS pp pp pp
0.0000000000000000e+00 3.0783806435974007e+01
0.0000000000000000e+00 3.0783806435974007e+01
-1.5391903217987005e-01 1.5391903217987005e-01
ITEM: ATOMS id type xs ys zs
1 1 0 0 0.5
2 1 0.025 0.025 0.5
3 1 0.05 0 0.5
4 1 0 0.05 0.5
6 1 0.05 0.05 0.5
5 1 0.025 0.075 0.5
7 1 0 0.1 0.5
8 1 0.05 0.1 0.5
9 1 0.025 0.125 0.5
10 1 0 0.15 0.5
11 1 0.025 0.175 0.5
12 1 0.05 0.15 0.5
13 1 0 0.2 0.5
14 1 0.025 0.225 0.5
15 1 0.05 0.2 0.5
16 1 0 0.25 0.5
17 1 0.025 0.275 0.5
18 1 0.05 0.25 0.5
19 1 0 0.3 0.5
21 1 0.05 0.3 0.5
20 1 0.025 0.325 0.5
22 1 0 0.35 0.5
23 1 0.05 0.35 0.5
24 1 0.025 0.375 0.5
25 1 0 0.4 0.5
26 1 0.025 0.425 0.5
27 1 0.05 0.4 0.5
28 1 0 0.45 0.5
29 1 0.025 0.475 0.5
30 1 0.05 0.45 0.5
31 1 0 0.5 0.5
32 1 0.025 0.525 0.5
33 1 0.05 0.5 0.5
34 1 0 0.55 0.5
36 1 0.05 0.55 0.5
35 1 0.025 0.575 0.5
37 1 0 0.6 0.5
38 1 0.05 0.6 0.5
39 1 0.025 0.625 0.5
40 1 0 0.65 0.5
41 1 0.025 0.675 0.5
42 1 0.05 0.65 0.5
43 1 0 0.7 0.5
44 1 0.025 0.725 0.5
45 1 0.05 0.7 0.5
46 1 0 0.75 0.5
47 1 0.025 0.775 0.5
48 1 0.05 0.75 0.5
49 1 0 0.8 0.5
51 1 0.05 0.8 0.5
50 1 0.025 0.825 0.5
52 1 0 0.85 0.5
53 1 0.05 0.85 0.5
54 1 0.025 0.875 0.5
55 1 0 0.9 0.5
56 1 0.025 0.925 0.5
57 1 0.05 0.9 0.5
58 1 0 0.95 0.5
59 1 0.025 0.975 0.5
60 1 0.05 0.95 0.5
61 1 0.075 0.025 0.5
62 1 0.1 0 0.5
64 1 0.1 0.05 0.5
63 1 0.075 0.075 0.5
65 1 0.1 0.1 0.5
66 1 0.075 0.125 0.5
67 1 0.075 0.175 0.5
68 1 0.1 0.15 0.5
69 1 0.075 0.225 0.5
70 1 0.1 0.2 0.5
71 1 0.075 0.275 0.5
72 1 0.1 0.25 0.5
74 1 0.1 0.3 0.5
73 1 0.075 0.325 0.5
75 1 0.1 0.35 0.5
76 1 0.075 0.375 0.5
77 1 0.075 0.425 0.5
78 1 0.1 0.4 0.5
79 1 0.075 0.475 0.5
80 1 0.1 0.45 0.5
81 1 0.075 0.525 0.5
82 1 0.1 0.5 0.5
84 1 0.1 0.55 0.5
83 1 0.075 0.575 0.5
85 1 0.1 0.6 0.5
86 1 0.075 0.625 0.5
87 1 0.075 0.675 0.5
88 1 0.1 0.65 0.5
89 1 0.075 0.725 0.5
90 1 0.1 0.7 0.5
91 1 0.075 0.775 0.5
92 1 0.1 0.75 0.5
94 1 0.1 0.8 0.5
93 1 0.075 0.825 0.5
95 1 0.1 0.85 0.5
96 1 0.075 0.875 0.5
97 1 0.075 0.925 0.5
98 1 0.1 0.9 0.5
99 1 0.075 0.975 0.5
100 1 0.1 0.95 0.5
101 1 0.125 0.025 0.5
102 1 0.15 0 0.5
103 1 0.175 0.025 0.5
105 1 0.15 0.05 0.5
104 1 0.125 0.075 0.5
106 1 0.175 0.075 0.5
107 1 0.15 0.1 0.5
108 1 0.125 0.125 0.5
109 1 0.175 0.125 0.5
110 1 0.125 0.175 0.5
111 1 0.15 0.15 0.5
112 1 0.175 0.175 0.5
113 1 0.125 0.225 0.5
114 1 0.15 0.2 0.5
115 1 0.175 0.225 0.5
116 1 0.125 0.275 0.5
117 1 0.15 0.25 0.5
118 1 0.175 0.275 0.5
120 1 0.15 0.3 0.5
119 1 0.125 0.325 0.5
121 1 0.175 0.325 0.5
122 1 0.15 0.35 0.5
123 1 0.125 0.375 0.5
124 1 0.175 0.375 0.5
125 1 0.125 0.425 0.5
126 1 0.15 0.4 0.5
127 1 0.175 0.425 0.5
128 1 0.125 0.475 0.5
129 1 0.15 0.45 0.5
130 1 0.175 0.475 0.5
131 1 0.125 0.525 0.5
132 1 0.15 0.5 0.5
133 1 0.175 0.525 0.5
135 1 0.15 0.55 0.5
134 1 0.125 0.575 0.5
136 1 0.175 0.575 0.5
137 1 0.15 0.6 0.5
138 1 0.125 0.625 0.5
139 1 0.175 0.625 0.5
140 1 0.125 0.675 0.5
141 1 0.15 0.65 0.5
142 1 0.175 0.675 0.5
143 1 0.125 0.725 0.5
144 1 0.15 0.7 0.5
145 1 0.175 0.725 0.5
146 1 0.125 0.775 0.5
147 1 0.15 0.75 0.5
148 1 0.175 0.775 0.5
150 1 0.15 0.8 0.5
149 1 0.125 0.825 0.5
151 1 0.175 0.825 0.5
152 1 0.15 0.85 0.5
153 1 0.125 0.875 0.5
154 1 0.175 0.875 0.5
155 1 0.125 0.925 0.5
156 1 0.15 0.9 0.5
157 1 0.175 0.925 0.5
158 1 0.125 0.975 0.5
159 1 0.15 0.95 0.5
160 1 0.175 0.975 0.5
161 1 0.2 0 0.5
162 1 0.225 0.025 0.5
163 1 0.2 0.05 0.5
164 1 0.225 0.075 0.5
165 1 0.2 0.1 0.5
166 1 0.225 0.125 0.5
167 1 0.2 0.15 0.5
168 1 0.225 0.175 0.5
169 1 0.2 0.2 0.5
170 1 0.225 0.225 0.5
171 1 0.2 0.25 0.5
172 1 0.225 0.275 0.5
173 1 0.2 0.3 0.5
174 1 0.225 0.325 0.5
175 1 0.2 0.35 0.5
176 1 0.225 0.375 0.5
177 1 0.2 0.4 0.5
178 1 0.225 0.425 0.5
179 1 0.2 0.45 0.5
180 1 0.225 0.475 0.5
181 1 0.2 0.5 0.5
182 1 0.225 0.525 0.5
183 1 0.2 0.55 0.5
184 1 0.225 0.575 0.5
185 1 0.2 0.6 0.5
186 1 0.225 0.625 0.5
187 1 0.2 0.65 0.5
188 1 0.225 0.675 0.5
189 1 0.2 0.7 0.5
190 1 0.225 0.725 0.5
191 1 0.2 0.75 0.5
192 1 0.225 0.775 0.5
193 1 0.2 0.8 0.5
194 1 0.225 0.825 0.5
195 1 0.2 0.85 0.5
196 1 0.225 0.875 0.5
197 1 0.2 0.9 0.5
198 1 0.225 0.925 0.5
199 1 0.2 0.95 0.5
200 1 0.225 0.975 0.5
201 1 0.25 0 0.5
202 1 0.275 0.025 0.5
203 1 0.3 0 0.5
204 1 0.25 0.05 0.5
206 1 0.3 0.05 0.5
205 1 0.275 0.075 0.5
207 1 0.25 0.1 0.5
208 1 0.3 0.1 0.5
209 1 0.275 0.125 0.5
210 1 0.25 0.15 0.5
211 1 0.275 0.175 0.5
212 1 0.3 0.15 0.5
213 1 0.25 0.2 0.5
214 1 0.275 0.225 0.5
215 1 0.3 0.2 0.5
216 1 0.25 0.25 0.5
217 1 0.275 0.275 0.5
218 1 0.3 0.25 0.5
219 1 0.25 0.3 0.5
221 1 0.3 0.3 0.5
220 1 0.275 0.325 0.5
222 1 0.25 0.35 0.5
223 1 0.3 0.35 0.5
224 1 0.275 0.375 0.5
225 1 0.25 0.4 0.5
226 1 0.275 0.425 0.5
227 1 0.3 0.4 0.5
228 1 0.25 0.45 0.5
229 1 0.275 0.475 0.5
230 1 0.3 0.45 0.5
231 1 0.25 0.5 0.5
232 1 0.275 0.525 0.5
233 1 0.3 0.5 0.5
234 1 0.25 0.55 0.5
236 1 0.3 0.55 0.5
235 1 0.275 0.575 0.5
237 1 0.25 0.6 0.5
238 1 0.3 0.6 0.5
239 1 0.275 0.625 0.5
240 1 0.25 0.65 0.5
241 1 0.275 0.675 0.5
242 1 0.3 0.65 0.5
243 1 0.25 0.7 0.5
244 1 0.275 0.725 0.5
245 1 0.3 0.7 0.5
246 1 0.25 0.75 0.5
247 1 0.275 0.775 0.5
248 1 0.3 0.75 0.5
249 1 0.25 0.8 0.5
251 1 0.3 0.8 0.5
250 1 0.275 0.825 0.5
252 1 0.25 0.85 0.5
253 1 0.3 0.85 0.5
254 1 0.275 0.875 0.5
255 1 0.25 0.9 0.5
256 1 0.275 0.925 0.5
257 1 0.3 0.9 0.5
258 1 0.25 0.95 0.5
259 1 0.275 0.975 0.5
260 1 0.3 0.95 0.5
261 1 0.325 0.025 0.5
262 1 0.35 0 0.5
264 1 0.35 0.05 0.5
263 1 0.325 0.075 0.5
265 1 0.35 0.1 0.5
266 1 0.325 0.125 0.5
267 1 0.325 0.175 0.5
268 1 0.35 0.15 0.5
269 1 0.325 0.225 0.5
270 1 0.35 0.2 0.5
271 1 0.325 0.275 0.5
272 1 0.35 0.25 0.5
274 1 0.35 0.3 0.5
273 1 0.325 0.325 0.5
275 1 0.35 0.35 0.5
276 1 0.325 0.375 0.5
277 1 0.325 0.425 0.5
278 1 0.35 0.4 0.5
279 1 0.325 0.475 0.5
280 1 0.35 0.45 0.5
281 1 0.325 0.525 0.5
282 1 0.35 0.5 0.5
284 1 0.35 0.55 0.5
283 1 0.325 0.575 0.5
285 1 0.35 0.6 0.5
286 1 0.325 0.625 0.5
287 1 0.325 0.675 0.5
288 1 0.35 0.65 0.5
289 1 0.325 0.725 0.5
290 1 0.35 0.7 0.5
291 1 0.325 0.775 0.5
292 1 0.35 0.75 0.5
294 1 0.35 0.8 0.5
293 1 0.325 0.825 0.5
295 1 0.35 0.85 0.5
296 1 0.325 0.875 0.5
297 1 0.325 0.925 0.5
298 1 0.35 0.9 0.5
299 1 0.325 0.975 0.5
300 1 0.35 0.95 0.5
301 1 0.375 0.025 0.5
302 1 0.4 0 0.5
303 1 0.425 0.025 0.5
305 1 0.4 0.05 0.5
304 1 0.375 0.075 0.5
306 1 0.425 0.075 0.5
307 1 0.4 0.1 0.5
308 1 0.375 0.125 0.5
309 1 0.425 0.125 0.5
310 1 0.375 0.175 0.5
311 1 0.4 0.15 0.5
312 1 0.425 0.175 0.5
313 1 0.375 0.225 0.5
314 1 0.4 0.2 0.5
315 1 0.425 0.225 0.5
316 1 0.375 0.275 0.5
317 1 0.4 0.25 0.5
318 1 0.425 0.275 0.5
320 1 0.4 0.3 0.5
319 1 0.375 0.325 0.5
321 1 0.425 0.325 0.5
322 1 0.4 0.35 0.5
323 1 0.375 0.375 0.5
324 1 0.425 0.375 0.5
325 1 0.375 0.425 0.5
326 1 0.4 0.4 0.5
327 1 0.425 0.425 0.5
328 1 0.375 0.475 0.5
329 1 0.4 0.45 0.5
330 1 0.425 0.475 0.5
331 1 0.375 0.525 0.5
332 1 0.4 0.5 0.5
333 1 0.425 0.525 0.5
335 1 0.4 0.55 0.5
334 1 0.375 0.575 0.5
336 1 0.425 0.575 0.5
337 1 0.4 0.6 0.5
338 1 0.375 0.625 0.5
339 1 0.425 0.625 0.5
340 1 0.375 0.675 0.5
341 1 0.4 0.65 0.5
342 1 0.425 0.675 0.5
343 1 0.375 0.725 0.5
344 1 0.4 0.7 0.5
345 1 0.425 0.725 0.5
346 1 0.375 0.775 0.5
347 1 0.4 0.75 0.5
348 1 0.425 0.775 0.5
350 1 0.4 0.8 0.5
349 1 0.375 0.825 0.5
351 1 0.425 0.825 0.5
352 1 0.4 0.85 0.5
353 1 0.375 0.875 0.5
354 1 0.425 0.875 0.5
355 1 0.375 0.925 0.5
356 1 0.4 0.9 0.5
357 1 0.425 0.925 0.5
358 1 0.375 0.975 0.5
359 1 0.4 0.95 0.5
360 1 0.425 0.975 0.5
361 1 0.45 0 0.5
362 1 0.475 0.025 0.5
363 1 0.45 0.05 0.5
364 1 0.475 0.075 0.5
365 1 0.45 0.1 0.5
366 1 0.475 0.125 0.5
367 1 0.45 0.15 0.5
368 1 0.475 0.175 0.5
369 1 0.45 0.2 0.5
370 1 0.475 0.225 0.5
371 1 0.45 0.25 0.5
372 1 0.475 0.275 0.5
373 1 0.45 0.3 0.5
374 1 0.475 0.325 0.5
375 1 0.45 0.35 0.5
376 1 0.475 0.375 0.5
377 1 0.45 0.4 0.5
378 1 0.475 0.425 0.5
379 1 0.45 0.45 0.5
380 1 0.475 0.475 0.5
381 1 0.45 0.5 0.5
382 1 0.475 0.525 0.5
383 1 0.45 0.55 0.5
384 1 0.475 0.575 0.5
385 1 0.45 0.6 0.5
386 1 0.475 0.625 0.5
387 1 0.45 0.65 0.5
388 1 0.475 0.675 0.5
389 1 0.45 0.7 0.5
390 1 0.475 0.725 0.5
391 1 0.45 0.75 0.5
392 1 0.475 0.775 0.5
393 1 0.45 0.8 0.5
394 1 0.475 0.825 0.5
395 1 0.45 0.85 0.5
396 1 0.475 0.875 0.5
397 1 0.45 0.9 0.5
398 1 0.475 0.925 0.5
399 1 0.45 0.95 0.5
400 1 0.475 0.975 0.5
401 1 0.5 0 0.5
402 1 0.525 0.025 0.5
403 1 0.55 0 0.5
404 1 0.5 0.05 0.5
406 1 0.55 0.05 0.5
405 1 0.525 0.075 0.5
407 1 0.5 0.1 0.5
408 1 0.55 0.1 0.5
409 1 0.525 0.125 0.5
410 1 0.5 0.15 0.5
411 1 0.525 0.175 0.5
412 1 0.55 0.15 0.5
413 1 0.5 0.2 0.5
414 1 0.525 0.225 0.5
415 1 0.55 0.2 0.5
416 1 0.5 0.25 0.5
417 1 0.525 0.275 0.5
418 1 0.55 0.25 0.5
419 1 0.5 0.3 0.5
421 1 0.55 0.3 0.5
420 1 0.525 0.325 0.5
422 1 0.5 0.35 0.5
423 1 0.55 0.35 0.5
424 1 0.525 0.375 0.5
425 1 0.5 0.4 0.5
426 1 0.525 0.425 0.5
427 1 0.55 0.4 0.5
428 1 0.5 0.45 0.5
429 1 0.525 0.475 0.5
430 1 0.55 0.45 0.5
431 1 0.5 0.5 0.5
432 1 0.525 0.525 0.5
433 1 0.55 0.5 0.5
434 1 0.5 0.55 0.5
436 1 0.55 0.55 0.5
435 1 0.525 0.575 0.5
437 1 0.5 0.6 0.5
438 1 0.55 0.6 0.5
439 1 0.525 0.625 0.5
440 1 0.5 0.65 0.5
441 1 0.525 0.675 0.5
442 1 0.55 0.65 0.5
443 1 0.5 0.7 0.5
444 1 0.525 0.725 0.5
445 1 0.55 0.7 0.5
446 1 0.5 0.75 0.5
447 1 0.525 0.775 0.5
448 1 0.55 0.75 0.5
449 1 0.5 0.8 0.5
451 1 0.55 0.8 0.5
450 1 0.525 0.825 0.5
452 1 0.5 0.85 0.5
453 1 0.55 0.85 0.5
454 1 0.525 0.875 0.5
455 1 0.5 0.9 0.5
456 1 0.525 0.925 0.5
457 1 0.55 0.9 0.5
458 1 0.5 0.95 0.5
459 1 0.525 0.975 0.5
460 1 0.55 0.95 0.5
461 1 0.575 0.025 0.5
462 1 0.6 0 0.5
464 1 0.6 0.05 0.5
463 1 0.575 0.075 0.5
465 1 0.6 0.1 0.5
466 1 0.575 0.125 0.5
467 1 0.575 0.175 0.5
468 1 0.6 0.15 0.5
469 1 0.575 0.225 0.5
470 1 0.6 0.2 0.5
471 1 0.575 0.275 0.5
472 1 0.6 0.25 0.5
474 1 0.6 0.3 0.5
473 1 0.575 0.325 0.5
475 1 0.6 0.35 0.5
476 1 0.575 0.375 0.5
477 1 0.575 0.425 0.5
478 1 0.6 0.4 0.5
479 1 0.575 0.475 0.5
480 1 0.6 0.45 0.5
481 1 0.575 0.525 0.5
482 1 0.6 0.5 0.5
484 1 0.6 0.55 0.5
483 1 0.575 0.575 0.5
485 1 0.6 0.6 0.5
486 1 0.575 0.625 0.5
487 1 0.575 0.675 0.5
488 1 0.6 0.65 0.5
489 1 0.575 0.725 0.5
490 1 0.6 0.7 0.5
491 1 0.575 0.775 0.5
492 1 0.6 0.75 0.5
494 1 0.6 0.8 0.5
493 1 0.575 0.825 0.5
495 1 0.6 0.85 0.5
496 1 0.575 0.875 0.5
497 1 0.575 0.925 0.5
498 1 0.6 0.9 0.5
499 1 0.575 0.975 0.5
500 1 0.6 0.95 0.5
501 1 0.625 0.025 0.5
502 1 0.65 0 0.5
503 1 0.675 0.025 0.5
505 1 0.65 0.05 0.5
504 1 0.625 0.075 0.5
506 1 0.675 0.075 0.5
507 1 0.65 0.1 0.5
508 1 0.625 0.125 0.5
509 1 0.675 0.125 0.5
510 1 0.625 0.175 0.5
511 1 0.65 0.15 0.5
512 1 0.675 0.175 0.5
513 1 0.625 0.225 0.5
514 1 0.65 0.2 0.5
515 1 0.675 0.225 0.5
516 1 0.625 0.275 0.5
517 1 0.65 0.25 0.5
518 1 0.675 0.275 0.5
520 1 0.65 0.3 0.5
519 1 0.625 0.325 0.5
521 1 0.675 0.325 0.5
522 1 0.65 0.35 0.5
523 1 0.625 0.375 0.5
524 1 0.675 0.375 0.5
525 1 0.625 0.425 0.5
526 1 0.65 0.4 0.5
527 1 0.675 0.425 0.5
528 1 0.625 0.475 0.5
529 1 0.65 0.45 0.5
530 1 0.675 0.475 0.5
531 1 0.625 0.525 0.5
532 1 0.65 0.5 0.5
533 1 0.675 0.525 0.5
535 1 0.65 0.55 0.5
534 1 0.625 0.575 0.5
536 1 0.675 0.575 0.5
537 1 0.65 0.6 0.5
538 1 0.625 0.625 0.5
539 1 0.675 0.625 0.5
540 1 0.625 0.675 0.5
541 1 0.65 0.65 0.5
542 1 0.675 0.675 0.5
543 1 0.625 0.725 0.5
544 1 0.65 0.7 0.5
545 1 0.675 0.725 0.5
546 1 0.625 0.775 0.5
547 1 0.65 0.75 0.5
548 1 0.675 0.775 0.5
550 1 0.65 0.8 0.5
549 1 0.625 0.825 0.5
551 1 0.675 0.825 0.5
552 1 0.65 0.85 0.5
553 1 0.625 0.875 0.5
554 1 0.675 0.875 0.5
555 1 0.625 0.925 0.5
556 1 0.65 0.9 0.5
557 1 0.675 0.925 0.5
558 1 0.625 0.975 0.5
559 1 0.65 0.95 0.5
560 1 0.675 0.975 0.5
561 1 0.7 0 0.5
562 1 0.725 0.025 0.5
563 1 0.7 0.05 0.5
564 1 0.725 0.075 0.5
565 1 0.7 0.1 0.5
566 1 0.725 0.125 0.5
567 1 0.7 0.15 0.5
568 1 0.725 0.175 0.5
569 1 0.7 0.2 0.5
570 1 0.725 0.225 0.5
571 1 0.7 0.25 0.5
572 1 0.725 0.275 0.5
573 1 0.7 0.3 0.5
574 1 0.725 0.325 0.5
575 1 0.7 0.35 0.5
576 1 0.725 0.375 0.5
577 1 0.7 0.4 0.5
578 1 0.725 0.425 0.5
579 1 0.7 0.45 0.5
580 1 0.725 0.475 0.5
581 1 0.7 0.5 0.5
582 1 0.725 0.525 0.5
583 1 0.7 0.55 0.5
584 1 0.725 0.575 0.5
585 1 0.7 0.6 0.5
586 1 0.725 0.625 0.5
587 1 0.7 0.65 0.5
588 1 0.725 0.675 0.5
589 1 0.7 0.7 0.5
590 1 0.725 0.725 0.5
591 1 0.7 0.75 0.5
592 1 0.725 0.775 0.5
593 1 0.7 0.8 0.5
594 1 0.725 0.825 0.5
595 1 0.7 0.85 0.5
596 1 0.725 0.875 0.5
597 1 0.7 0.9 0.5
598 1 0.725 0.925 0.5
599 1 0.7 0.95 0.5
600 1 0.725 0.975 0.5
601 1 0.75 0 0.5
602 1 0.775 0.025 0.5
603 1 0.8 0 0.5
604 1 0.75 0.05 0.5
606 1 0.8 0.05 0.5
605 1 0.775 0.075 0.5
607 1 0.75 0.1 0.5
608 1 0.8 0.1 0.5
609 1 0.775 0.125 0.5
610 1 0.75 0.15 0.5
611 1 0.775 0.175 0.5
612 1 0.8 0.15 0.5
613 1 0.75 0.2 0.5
614 1 0.775 0.225 0.5
615 1 0.8 0.2 0.5
616 1 0.75 0.25 0.5
617 1 0.775 0.275 0.5
618 1 0.8 0.25 0.5
619 1 0.75 0.3 0.5
621 1 0.8 0.3 0.5
620 1 0.775 0.325 0.5
622 1 0.75 0.35 0.5
623 1 0.8 0.35 0.5
624 1 0.775 0.375 0.5
625 1 0.75 0.4 0.5
626 1 0.775 0.425 0.5
627 1 0.8 0.4 0.5
628 1 0.75 0.45 0.5
629 1 0.775 0.475 0.5
630 1 0.8 0.45 0.5
631 1 0.75 0.5 0.5
632 1 0.775 0.525 0.5
633 1 0.8 0.5 0.5
634 1 0.75 0.55 0.5
636 1 0.8 0.55 0.5
635 1 0.775 0.575 0.5
637 1 0.75 0.6 0.5
638 1 0.8 0.6 0.5
639 1 0.775 0.625 0.5
640 1 0.75 0.65 0.5
641 1 0.775 0.675 0.5
642 1 0.8 0.65 0.5
643 1 0.75 0.7 0.5
644 1 0.775 0.725 0.5
645 1 0.8 0.7 0.5
646 1 0.75 0.75 0.5
647 1 0.775 0.775 0.5
648 1 0.8 0.75 0.5
649 1 0.75 0.8 0.5
651 1 0.8 0.8 0.5
650 1 0.775 0.825 0.5
652 1 0.75 0.85 0.5
653 1 0.8 0.85 0.5
654 1 0.775 0.875 0.5
655 1 0.75 0.9 0.5
656 1 0.775 0.925 0.5
657 1 0.8 0.9 0.5
658 1 0.75 0.95 0.5
659 1 0.775 0.975 0.5
660 1 0.8 0.95 0.5
661 1 0.825 0.025 0.5
662 1 0.85 0 0.5
664 1 0.85 0.05 0.5
663 1 0.825 0.075 0.5
665 1 0.85 0.1 0.5
666 1 0.825 0.125 0.5
667 1 0.825 0.175 0.5
668 1 0.85 0.15 0.5
669 1 0.825 0.225 0.5
670 1 0.85 0.2 0.5
671 1 0.825 0.275 0.5
672 1 0.85 0.25 0.5
674 1 0.85 0.3 0.5
673 1 0.825 0.325 0.5
675 1 0.85 0.35 0.5
676 1 0.825 0.375 0.5
677 1 0.825 0.425 0.5
678 1 0.85 0.4 0.5
679 1 0.825 0.475 0.5
680 1 0.85 0.45 0.5
681 1 0.825 0.525 0.5
682 1 0.85 0.5 0.5
684 1 0.85 0.55 0.5
683 1 0.825 0.575 0.5
685 1 0.85 0.6 0.5
686 1 0.825 0.625 0.5
687 1 0.825 0.675 0.5
688 1 0.85 0.65 0.5
689 1 0.825 0.725 0.5
690 1 0.85 0.7 0.5
691 1 0.825 0.775 0.5
692 1 0.85 0.75 0.5
694 1 0.85 0.8 0.5
693 1 0.825 0.825 0.5
695 1 0.85 0.85 0.5
696 1 0.825 0.875 0.5
697 1 0.825 0.925 0.5
698 1 0.85 0.9 0.5
699 1 0.825 0.975 0.5
700 1 0.85 0.95 0.5
701 1 0.875 0.025 0.5
702 1 0.9 0 0.5
703 1 0.925 0.025 0.5
705 1 0.9 0.05 0.5
704 1 0.875 0.075 0.5
706 1 0.925 0.075 0.5
707 1 0.9 0.1 0.5
708 1 0.875 0.125 0.5
709 1 0.925 0.125 0.5
710 1 0.875 0.175 0.5
711 1 0.9 0.15 0.5
712 1 0.925 0.175 0.5
713 1 0.875 0.225 0.5
714 1 0.9 0.2 0.5
715 1 0.925 0.225 0.5
716 1 0.875 0.275 0.5
717 1 0.9 0.25 0.5
718 1 0.925 0.275 0.5
720 1 0.9 0.3 0.5
719 1 0.875 0.325 0.5
721 1 0.925 0.325 0.5
722 1 0.9 0.35 0.5
723 1 0.875 0.375 0.5
724 1 0.925 0.375 0.5
725 1 0.875 0.425 0.5
726 1 0.9 0.4 0.5
727 1 0.925 0.425 0.5
728 1 0.875 0.475 0.5
729 1 0.9 0.45 0.5
730 1 0.925 0.475 0.5
731 1 0.875 0.525 0.5
732 1 0.9 0.5 0.5
733 1 0.925 0.525 0.5
735 1 0.9 0.55 0.5
734 1 0.875 0.575 0.5
736 1 0.925 0.575 0.5
737 1 0.9 0.6 0.5
738 1 0.875 0.625 0.5
739 1 0.925 0.625 0.5
740 1 0.875 0.675 0.5
741 1 0.9 0.65 0.5
742 1 0.925 0.675 0.5
743 1 0.875 0.725 0.5
744 1 0.9 0.7 0.5
745 1 0.925 0.725 0.5
746 1 0.875 0.775 0.5
747 1 0.9 0.75 0.5
748 1 0.925 0.775 0.5
750 1 0.9 0.8 0.5
749 1 0.875 0.825 0.5
751 1 0.925 0.825 0.5
752 1 0.9 0.85 0.5
753 1 0.875 0.875 0.5
754 1 0.925 0.875 0.5
755 1 0.875 0.925 0.5
756 1 0.9 0.9 0.5
757 1 0.925 0.925 0.5
758 1 0.875 0.975 0.5
759 1 0.9 0.95 0.5
760 1 0.925 0.975 0.5
761 1 0.95 0 0.5
762 1 0.975 0.025 0.5
763 1 0.95 0.05 0.5
764 1 0.975 0.075 0.5
765 1 0.95 0.1 0.5
766 1 0.975 0.125 0.5
767 1 0.95 0.15 0.5
768 1 0.975 0.175 0.5
769 1 0.95 0.2 0.5
770 1 0.975 0.225 0.5
771 1 0.95 0.25 0.5
772 1 0.975 0.275 0.5
773 1 0.95 0.3 0.5
774 1 0.975 0.325 0.5
775 1 0.95 0.35 0.5
776 1 0.975 0.375 0.5
777 1 0.95 0.4 0.5
778 1 0.975 0.425 0.5
779 1 0.95 0.45 0.5
780 1 0.975 0.475 0.5
781 1 0.95 0.5 0.5
782 1 0.975 0.525 0.5
783 1 0.95 0.55 0.5
784 1 0.975 0.575 0.5
785 1 0.95 0.6 0.5
786 1 0.975 0.625 0.5
787 1 0.95 0.65 0.5
788 1 0.975 0.675 0.5
789 1 0.95 0.7 0.5
790 1 0.975 0.725 0.5
791 1 0.95 0.75 0.5
792 1 0.975 0.775 0.5
793 1 0.95 0.8 0.5
794 1 0.975 0.825 0.5
795 1 0.95 0.85 0.5
796 1 0.975 0.875 0.5
797 1 0.95 0.9 0.5
798 1 0.975 0.925 0.5
799 1 0.95 0.95 0.5
800 1 0.975 0.975 0.5
ITEM: TIMESTEP
100
ITEM: NUMBER OF ATOMS
800
ITEM: BOX BOUNDS pp pp pp
0.0000000000000000e+00 3.0783806435974007e+01
0.0000000000000000e+00 3.0783806435974007e+01
-1.5391903217987005e-01 1.5391903217987005e-01
ITEM: ATOMS id type xs ys zs
8 1 0.0540621 0.108515 0.5
2 1 0.00557709 0.0196893 0.5
6 1 0.0277266 0.0415665 0.5
5 1 0.0285274 0.0737621 0.5
3 1 0.0428118 0.0130524 0.5
9 1 0.0245988 0.104235 0.5
63 1 0.0616243 0.0720727 0.5
7 1 -0.00077987 0.0886269 0.5
14 1 0.0311978 0.241065 0.5
15 1 0.0426251 0.210652 0.5
11 1 0.0271912 0.16941 0.5
12 1 0.034523 0.135083 0.5
13 1 0.00969833 0.197154 0.5
10 1 0.00389908 0.136947 0.5
18 1 0.0452006 0.275067 0.5
17 1 0.0134592 0.311726 0.5
20 1 0.027489 0.336911 0.5
16 1 0.00238479 0.270717 0.5
21 1 0.047575 0.309124 0.5
24 1 0.0336663 0.370301 0.5
23 1 0.0573607 0.336455 0.5
30 1 0.0437579 0.450925 0.5
25 1 0.0015013 0.385576 0.5
26 1 0.0332207 0.410361 0.5
27 1 0.059685 0.389861 0.5
29 1 0.0224705 0.475031 0.5
28 1 0.0126182 0.434131 0.5
38 1 0.0495288 0.571021 0.5
32 1 0.0207502 0.521439 0.5
36 1 0.050528 0.532838 0.5
35 1 0.0169731 0.557304 0.5
39 1 0.0388891 0.603453 0.5
37 1 0.00646155 0.585723 0.5
33 1 0.0452702 0.503005 0.5
48 1 0.0510425 0.744356 0.5
40 1 0.0205372 0.643734 0.5
86 1 0.0519824 0.632024 0.5
42 1 0.0262102 0.675701 0.5
45 1 0.0323041 0.715084 0.5
44 1 0.0202372 0.748391 0.5
51 1 0.0314923 0.812903 0.5
47 1 0.0385273 0.778345 0.5
53 1 0.0539785 0.84103 0.5
50 1 0.0152069 0.848716 0.5
46 1 0.00292228 0.783411 0.5
49 1 0.000395464 0.820985 0.5
54 1 0.0566092 0.905637 0.5
55 1 0.00701895 0.880018 0.5
56 1 0.0179301 0.910924 0.5
57 1 0.0629243 0.940453 0.5
60 1 0.0302681 0.945874 0.5
59 1 0.0114593 0.983251 0.5
99 1 0.0515786 0.978213 0.5
52 1 0.0446652 0.874134 0.5
61 1 0.0806305 0.0178401 0.5
65 1 0.0942775 0.085739 0.5
64 1 0.0834938 0.0494827 0.5
101 1 0.115807 0.0433644 0.5
66 1 0.0877439 0.117167 0.5
104 1 0.125216 0.085391 0.5
158 1 0.123005 0.00327367 0.5
72 1 0.0830282 0.248423 0.5
113 1 0.10873 0.222976 0.5
68 1 0.0994669 0.154185 0.5
69 1 0.0754245 0.214528 0.5
70 1 0.100839 0.190987 0.5
67 1 0.0695201 0.15844 0.5
71 1 0.0775107 0.27981 0.5
75 1 0.104232 0.341688 0.5
74 1 0.118689 0.30399 0.5
73 1 0.0849582 0.315184 0.5
116 1 0.108866 0.271921 0.5
76 1 0.0780253 0.360497 0.5
123 1 0.114036 0.371769 0.5
128 1 0.109042 0.470339 0.5
77 1 0.0679385 0.423776 0.5
78 1 0.091436 0.400678 0.5
79 1 0.0765779 0.463123 0.5
80 1 0.0986048 0.432355 0.5
81 1 0.0830573 0.530539 0.5
138 1 0.112202 0.602794 0.5
84 1 0.110013 0.564743 0.5
83 1 0.0779942 0.561767 0.5
85 1 0.0792659 0.595263 0.5
82 1 0.100171 0.505005 0.5
140 1 0.101939 0.682495 0.5
87 1 0.0691066 0.666938 0.5
88 1 0.0886761 0.62436 0.5
89 1 0.0869026 0.740692 0.5
90 1 0.0710282 0.707293 0.5
143 1 0.104122 0.714351 0.5
141 1 0.114763 0.642027 0.5
91 1 0.068635 0.775435 0.5
92 1 0.113323 0.763228 0.5
94 1 0.0931407 0.794436 0.5
93 1 0.0650464 0.810351 0.5
95 1 0.0919672 0.853514 0.5
149 1 0.106118 0.822027 0.5
96 1 0.0809447 0.883578 0.5
97 1 0.0873453 0.959577 0.5
98 1 0.0923188 0.924471 0.5
62 1 0.0853942 0.990059 0.5
100 1 0.117588 0.967932 0.5
153 1 0.117908 0.874056 0.5
106 1 0.183708 0.0612391 0.5
107 1 0.162812 0.0906997 0.5
102 1 0.149106 0.029388 0.5
105 1 0.149994 0.0631434 0.5
108 1 0.132494 0.120251 0.5
109 1 0.173476 0.118339 0.5
103 1 0.181374 0.0303185 0.5
114 1 0.141385 0.207144 0.5
112 1 0.187499 0.177736 0.5
110 1 0.129527 0.175679 0.5
111 1 0.155099 0.151787 0.5
117 1 0.139787 0.239749 0.5
122 1 0.164475 0.354278 0.5
121 1 0.169727 0.321916 0.5
118 1 0.172542 0.256279 0.5
120 1 0.145543 0.286117 0.5
119 1 0.138144 0.336333 0.5
173 1 0.184628 0.292123 0.5
130 1 0.166989 0.466215 0.5
129 1 0.136754 0.444529 0.5
125 1 0.132987 0.409534 0.5
126 1 0.149394 0.380792 0.5
127 1 0.172918 0.409377 0.5
132 1 0.139825 0.483356 0.5
179 1 0.186178 0.440924 0.5
137 1 0.141643 0.617021 0.5
136 1 0.188162 0.578909 0.5
133 1 0.16992 0.502019 0.5
135 1 0.166464 0.54911 0.5
134 1 0.148172 0.585485 0.5
131 1 0.124728 0.526437 0.5
139 1 0.179834 0.620774 0.5
145 1 0.183006 0.728798 0.5
142 1 0.157241 0.665137 0.5
144 1 0.137801 0.699627 0.5
189 1 0.169345 0.698758 0.5
147 1 0.145451 0.750524 0.5
151 1 0.172603 0.839365 0.5
148 1 0.174817 0.773341 0.5
150 1 0.157371 0.802419 0.5
152 1 0.139352 0.84783 0.5
154 1 0.169152 0.875725 0.5
146 1 0.127052 0.793959 0.5
160 1 0.176778 0.968557 0.5
161 1 0.1761 1.00008 0.5
159 1 0.14622 0.963 0.5
156 1 0.143043 0.89917 0.5
157 1 0.166407 0.934896 0.5
155 1 0.125494 0.930869 0.5
197 1 0.181412 0.906248 0.5
201 1 0.242056 0.00673374 0.5
162 1 0.210193 0.0145849 0.5
163 1 0.217142 0.0443733 0.5
164 1 0.228786 0.0839477 0.5
165 1 0.204543 0.100077 0.5
204 1 0.247304 0.0552808 0.5
166 1 0.228733 0.145298 0.5
167 1 0.190548 0.143566 0.5
168 1 0.229263 0.176709 0.5
169 1 0.209202 0.202949 0.5
170 1 0.236763 0.224696 0.5
115 1 0.189549 0.227642 0.5
171 1 0.207511 0.263404 0.5
176 1 0.217537 0.359786 0.5
222 1 0.24282 0.328051 0.5
174 1 0.223464 0.29318 0.5
175 1 0.204982 0.330809 0.5
181 1 0.207101 0.498589 0.5
177 1 0.208789 0.406617 0.5
178 1 0.238974 0.436592 0.5
231 1 0.238029 0.484776 0.5
180 1 0.211216 0.461485 0.5
225 1 0.240484 0.387232 0.5
124 1 0.189529 0.378088 0.5
239 1 0.239174 0.623358 0.5
182 1 0.230026 0.528362 0.5
183 1 0.193255 0.528056 0.5
184 1 0.206447 0.555152 0.5
185 1 0.208979 0.603901 0.5
234 1 0.241027 0.564365 0.5
190 1 0.240008 0.714372 0.5
187 1 0.187801 0.663398 0.5
188 1 0.212607 0.691371 0.5
191 1 0.218821 0.745258 0.5
186 1 0.214937 0.647056 0.5
249 1 0.233841 0.798624 0.5
192 1 0.20504 0.772039 0.5
193 1 0.196217 0.803637 0.5
194 1 0.20482 0.83681 0.5
195 1 0.198627 0.866336 0.5
252 1 0.23431 0.849087 0.5
246 1 0.240418 0.767581 0.5
196 1 0.233718 0.880806 0.5
259 1 0.245305 0.969686 0.5
198 1 0.215966 0.908465 0.5
199 1 0.203229 0.940254 0.5
200 1 0.212413 0.976936 0.5
258 1 0.235467 0.934308 0.5
208 1 0.294666 0.108176 0.5
202 1 0.273671 0.0254197 0.5
206 1 0.29357 0.0551094 0.5
205 1 0.260402 0.0835675 0.5
207 1 0.258632 0.122526 0.5
213 1 0.267589 0.223412 0.5
209 1 0.28668 0.142174 0.5
211 1 0.256006 0.19073 0.5
212 1 0.287669 0.177332 0.5
214 1 0.295933 0.242547 0.5
210 1 0.259355 0.158601 0.5
216 1 0.253995 0.256146 0.5
217 1 0.28565 0.271108 0.5
224 1 0.259778 0.359101 0.5
219 1 0.272018 0.316632 0.5
221 1 0.300878 0.299213 0.5
220 1 0.296736 0.341457 0.5
172 1 0.256828 0.289372 0.5
229 1 0.273363 0.493334 0.5
230 1 0.300154 0.440225 0.5
226 1 0.268073 0.421758 0.5
227 1 0.30049 0.404309 0.5
279 1 0.301481 0.478383 0.5
228 1 0.279694 0.459199 0.5
223 1 0.285531 0.377823 0.5
238 1 0.281633 0.594484 0.5
232 1 0.263983 0.536359 0.5
233 1 0.304127 0.511862 0.5
235 1 0.280427 0.562915 0.5
236 1 0.305538 0.546188 0.5
237 1 0.251545 0.592211 0.5
245 1 0.299454 0.692132 0.5
240 1 0.246847 0.657188 0.5
241 1 0.282286 0.66577 0.5
242 1 0.285593 0.628205 0.5
244 1 0.26363 0.74342 0.5
243 1 0.253904 0.689373 0.5
288 1 0.312068 0.647863 0.5
251 1 0.288421 0.810474 0.5
247 1 0.269331 0.784255 0.5
250 1 0.254937 0.823983 0.5
253 1 0.286565 0.842727 0.5
248 1 0.292949 0.753587 0.5
291 1 0.31205 0.784116 0.5
296 1 0.304816 0.88134 0.5
260 1 0.301389 0.94594 0.5
256 1 0.268923 0.945452 0.5
257 1 0.290066 0.914197 0.5
203 1 0.30923 0.99006 0.5
255 1 0.253415 0.905218 0.5
254 1 0.272862 0.877817 0.5
261 1 0.314917 0.0189665 0.5
304 1 0.368957 0.0709168 0.5
264 1 0.332676 0.0479291 0.5
263 1 0.321572 0.0843708 0.5
265 1 0.349251 0.099663 0.5
301 1 0.359103 0.0114443 0.5
305 1 0.375357 0.0394444 0.5
270 1 0.351117 0.190686 0.5
267 1 0.328316 0.169842 0.5
268 1 0.366599 0.14456 0.5
269 1 0.328878 0.23672 0.5
272 1 0.364061 0.229504 0.5
266 1 0.324775 0.128475 0.5
215 1 0.31487 0.204441 0.5
271 1 0.352036 0.263221 0.5
319 1 0.356696 0.341557 0.5
274 1 0.376042 0.295808 0.5
273 1 0.344874 0.309918 0.5
275 1 0.321919 0.357101 0.5
218 1 0.318068 0.266916 0.5
282 1 0.333609 0.492679 0.5
277 1 0.326982 0.422853 0.5
278 1 0.357001 0.431892 0.5
328 1 0.368381 0.471884 0.5
280 1 0.333592 0.45315 0.5
276 1 0.330046 0.388117 0.5
323 1 0.359789 0.377288 0.5
281 1 0.332068 0.527894 0.5
286 1 0.321197 0.61455 0.5
284 1 0.355199 0.566212 0.5
283 1 0.323205 0.580387 0.5
285 1 0.361307 0.595099 0.5
331 1 0.368681 0.536371 0.5
343 1 0.357587 0.734502 0.5
287 1 0.326405 0.681619 0.5
340 1 0.353905 0.662681 0.5
289 1 0.332848 0.714613 0.5
290 1 0.366583 0.702511 0.5
338 1 0.358826 0.633437 0.5
346 1 0.351831 0.767158 0.5
353 1 0.36646 0.844809 0.5
294 1 0.353237 0.798685 0.5
293 1 0.324205 0.813849 0.5
295 1 0.33045 0.848144 0.5
292 1 0.325024 0.753202 0.5
300 1 0.36069 0.940572 0.5
297 1 0.32587 0.921027 0.5
298 1 0.339969 0.893077 0.5
299 1 0.33208 0.955997 0.5
262 1 0.347723 0.981039 0.5
355 1 0.372617 0.912147 0.5
307 1 0.410829 0.0927575 0.5
302 1 0.404871 0.00225135 0.5
303 1 0.403295 0.05734 0.5
361 1 0.428924 0.0239462 0.5
308 1 0.378527 0.115095 0.5
311 1 0.410807 0.123408 0.5
306 1 0.4354 0.0633427 0.5
313 1 0.381225 0.200765 0.5
314 1 0.414164 0.189996 0.5
310 1 0.400797 0.153563 0.5
317 1 0.404137 0.222465 0.5
312 1 0.435148 0.153941 0.5
316 1 0.384223 0.25511 0.5
321 1 0.404594 0.310649 0.5
322 1 0.389981 0.347404 0.5
320 1 0.411792 0.272759 0.5
329 1 0.403122 0.477864 0.5
327 1 0.413119 0.411567 0.5
325 1 0.400539 0.441046 0.5
326 1 0.381404 0.405598 0.5
377 1 0.436397 0.382604 0.5
324 1 0.398725 0.377392 0.5
337 1 0.392982 0.606338 0.5
332 1 0.386316 0.502185 0.5
333 1 0.43269 0.512366 0.5
335 1 0.417052 0.538717 0.5
334 1 0.390087 0.563809 0.5
336 1 0.419905 0.581367 0.5
345 1 0.417006 0.729328 0.5
339 1 0.424843 0.646223 0.5
344 1 0.397507 0.693193 0.5
341 1 0.389182 0.648001 0.5
342 1 0.428436 0.676964 0.5
352 1 0.400751 0.84765 0.5
351 1 0.426531 0.799417 0.5
348 1 0.418967 0.764575 0.5
350 1 0.396584 0.786997 0.5
349 1 0.392376 0.815824 0.5
395 1 0.431228 0.834877 0.5
347 1 0.388788 0.754868 0.5
357 1 0.410346 0.91723 0.5
358 1 0.382246 0.979611 0.5
359 1 0.404642 0.95151 0.5
356 1 0.392132 0.878244 0.5
407 1 0.495943 0.0896576 0.5
362 1 0.468967 0.00217179 0.5
363 1 0.459119 0.0377908 0.5
364 1 0.477278 0.062983 0.5
365 1 0.462264 0.0948219 0.5
404 1 0.49392 0.0367839 0.5
309 1 0.440898 0.11518 0.5
370 1 0.473108 0.219168 0.5
367 1 0.473564 0.158523 0.5
368 1 0.493315 0.185573 0.5
369 1 0.457731 0.186375 0.5
315 1 0.436995 0.220063 0.5
366 1 0.477409 0.128983 0.5
318 1 0.440939 0.253988 0.5
372 1 0.486775 0.282767 0.5
422 1 0.484224 0.353598 0.5
374 1 0.476316 0.316666 0.5
375 1 0.449516 0.350263 0.5
373 1 0.441192 0.301366 0.5
371 1 0.486418 0.250727 0.5
376 1 0.470527 0.392114 0.5
330 1 0.447841 0.485828 0.5
378 1 0.45696 0.421473 0.5
379 1 0.445231 0.451401 0.5
380 1 0.479252 0.474491 0.5
428 1 0.485497 0.440556 0.5
381 1 0.469667 0.514315 0.5
382 1 0.483794 0.544688 0.5
383 1 0.439758 0.558775 0.5
384 1 0.475841 0.579229 0.5
385 1 0.442993 0.606366 0.5
386 1 0.484494 0.617651 0.5
440 1 0.480518 0.663971 0.5
387 1 0.45583 0.639144 0.5
388 1 0.460026 0.689157 0.5
389 1 0.46094 0.719094 0.5
390 1 0.490842 0.73669 0.5
443 1 0.489946 0.70255 0.5
391 1 0.447189 0.747756 0.5
452 1 0.468197 0.855555 0.5
392 1 0.485765 0.802333 0.5
393 1 0.458042 0.782068 0.5
394 1 0.456728 0.817933 0.5
446 1 0.487096 0.771004 0.5
396 1 0.489248 0.888081 0.5
397 1 0.442962 0.919313 0.5
398 1 0.473619 0.91821 0.5
399 1 0.438064 0.950072 0.5
354 1 0.456757 0.89135 0.5
360 1 0.436576 0.98242 0.5
458 1 0.495551 0.950128 0.5
401 1 0.518388 0.0126751 0.5
402 1 0.545878 0.0310905 0.5
405 1 0.513387 0.061894 0.5
408 1 0.525306 0.0912201 0.5
406 1 0.547923 0.0644312 0.5
463 1 0.559648 0.100393 0.5
409 1 0.522676 0.126597 0.5
410 1 0.511633 0.162715 0.5
411 1 0.543 0.1744 0.5
412 1 0.552797 0.132161 0.5
413 1 0.507538 0.212278 0.5
414 1 0.539636 0.216109 0.5
420 1 0.531694 0.34815 0.5
417 1 0.540798 0.278077 0.5
421 1 0.553975 0.306668 0.5
424 1 0.512436 0.373501 0.5
419 1 0.507326 0.324263 0.5
416 1 0.516392 0.255591 0.5
425 1 0.509055 0.413423 0.5
431 1 0.509772 0.489611 0.5
426 1 0.549121 0.421278 0.5
427 1 0.542963 0.384013 0.5
430 1 0.543761 0.468606 0.5
429 1 0.518394 0.447913 0.5
438 1 0.524737 0.620527 0.5
432 1 0.518073 0.527382 0.5
433 1 0.541886 0.502121 0.5
434 1 0.514088 0.559984 0.5
436 1 0.547965 0.54932 0.5
435 1 0.539725 0.590334 0.5
437 1 0.506183 0.59144 0.5
444 1 0.519249 0.725125 0.5
445 1 0.54573 0.710007 0.5
441 1 0.542858 0.675638 0.5
442 1 0.554125 0.642558 0.5
439 1 0.512867 0.656676 0.5
450 1 0.538732 0.84002 0.5
447 1 0.515671 0.791507 0.5
448 1 0.518559 0.755932 0.5
454 1 0.511471 0.862056 0.5
451 1 0.544094 0.808245 0.5
491 1 0.560685 0.774574 0.5
449 1 0.504803 0.833221 0.5
457 1 0.55696 0.868381 0.5
459 1 0.542915 0.974976 0.5
455 1 0.523377 0.895351 0.5
456 1 0.52535 0.931961 0.5
400 1 0.50571 0.981625 0.5
460 1 0.560901 0.949857 0.5
461 1 0.575094 0.026732 0.5
501 1 0.610251 0.0396918 0.5
464 1 0.580234 0.0650477 0.5
508 1 0.621877 0.117252 0.5
465 1 0.59761 0.0935398 0.5
462 1 0.599693 0.00719588 0.5
470 1 0.611859 0.186211 0.5
467 1 0.576282 0.162648 0.5
468 1 0.613946 0.150761 0.5
469 1 0.597146 0.220771 0.5
415 1 0.571197 0.204034 0.5
418 1 0.569339 0.239195 0.5
466 1 0.583939 0.127693 0.5
471 1 0.577189 0.275142 0.5
423 1 0.585319 0.35012 0.5
474 1 0.604529 0.288857 0.5
473 1 0.586207 0.318014 0.5
475 1 0.62232 0.351894 0.5
519 1 0.620055 0.316711 0.5
472 1 0.605554 0.256156 0.5
476 1 0.57727 0.37919 0.5
477 1 0.581282 0.414159 0.5
478 1 0.615028 0.385574 0.5
479 1 0.576756 0.486478 0.5
480 1 0.593879 0.45003 0.5
528 1 0.6197 0.478689 0.5
525 1 0.616832 0.423416 0.5
481 1 0.572358 0.525396 0.5
482 1 0.605801 0.508009 0.5