LAMMPS (17 Apr 2024)
OMP_NUM_THREADS environment is not set. Defaulting to 1 thread. (src/comm.cpp:98)
  using 1 OpenMP thread(s) per MPI task
# LAMMPS input script by Simon Gravelle
# This input is part of a tutorial from https://lammpstutorials.github.io
# Last tested using the 2Aug2023 stable LAMMPS version
# This file was released under the GNU general public license v3.0

# ⣿⣿⡆⠀⠀⠀⠀⠀⠀⣾⣿⣿⣆⠀⠀⠀⣿⣿⣿⣆⠀⠀⣰⣿⣿⣷⠀⢸⣿⣿⣷⡀⠀⢀⣾⣿⣿⠀⠀⣿⣿⣿⣿⣿⣷⣆⠀⢀⣶⣿⠿⠿⣿⡆⠀⠀⠀⠀⠀⠀⠀⠀⠀⢀⣀⣠⣤⣶⣿⣿⣿⣦⡄⠀⠀⠀⠀⠀⠀⠀
# ⣿⣿⡇⠀⠀⠀⠀⠀⣼⣿⡏⣿⣿⡄⠀⠀⣿⣿⡿⣿⡆⢰⣿⢿⣿⣿⠀⢸⣿⣿⢿⣧⠀⣾⡿⣿⣿⠀⠀⣿⣿⡇⠀⢈⣿⣿⠀⢸⣿⣧⣄⣀⡀⠀⠀⠀⠀⠀⠀⠀⢀⣤⣾⣿⣿⠏⣿⣿⣿⣿⣿⣿⣿⡄⠀⠀⠀⠀⠀⠀
# ⣿⣿⡇⠀⠀⠀⠀⢰⣿⣿⣀⣸⣿⣷⡀⠀⣿⣿⡇⢻⣿⣿⡏⢸⣿⣿⠀⢸⣿⣿⠘⣿⣿⡿⠁⣿⣿⠀⠀⣿⣿⡿⠿⠿⠿⠋⠀⠀⠉⠛⠻⠿⣿⣷⠀⠀⠀⠀⠀⢠⣿⣿⣿⣿⣿⡄⠻⣿⣿⣿⣿⡿⠟⣃⠀⠀⠀⠀⠀⠀
# ⣿⣿⣧⣤⣤⣤⢠⣿⣿⠛⠛⠛⢻⣿⣧⠀⣿⣿⡇⠀⠛⠛⠀⢸⣿⣿⠀⢸⣿⣿⠀⠘⠛⠃⠀⣿⣿⠀⠀⣿⣿⡇⠀⠀⠀⠀⠀⢰⣶⣤⣤⣤⣿⡿⠀⠀⠀⠀⠀⣻⣿⣿⣿⣿⣿⣿⣄⡀⠉⠉⠁⠀⢠⣿⡄⠀⠀⠀⠀⠀
# ⠉⠉⠉⠉⠉⠉⠈⠉⠁⠀⠀⠀⠀⠉⠉⠀⠉⠉⠁⠀⠀⠀⠀⠈⠉⠉⠀⠈⠉⠉⠀⠀⠀⠀⠀⠉⠉⠀⠀⠉⠉⠁⠀⠀⠀⠀⠀⠀⠉⠉⠉⠉⠉⠀⠀⠀⠀⠀⠀⣿⣿⣿⣿⣿⣿⣿⣿⣿⣷⣶⣶⣾⣿⣿⡇⠀⠀⠀⠀⠀
# ⢀⣤⠀⠀⠀⠀⠀⠀⠀⠀⠀⠀⣤⡀⠀⠀⠀⠀⠀⠀⠀⠀⠀⠀⠀⠀⠀⢰⣶⠀⠀⠀⠀⠀⠀⠀⠀⢰⡆⠀⠀⠀⠀⠀⠀⠀⠀⠀⠀⠀⠀⠀⠀⠀⠀⠀⠀⠀⠀⠘⣿⣿⣿⣿⣿⣿⣿⣿⣿⣿⣿⣿⣿⣿⡃⠀⠀⠀⠀⠀
# ⣼⣿⣴⡦⠀⣴⠀⠀⠀⣴⡄⢤⣿⣧⣶⠄⢀⣤⡶⣶⣄⠀⠀⣴⣤⣴⣦⢠⣦⠀⠀⣤⠶⢶⣤⡀⠀⢸⡇⠀⢠⣴⠶⢦⡄⠀⠀⠀⠀⠀⠀⠀⠀⠀⠀⠀⠀⠀⠀⢀⣼⣿⣿⣿⣿⣿⣿⣿⣿⣿⣿⣿⣿⣿⣿⣶⣄⠀⠀⠀
# ⢸⣿⠀⠀⠀⣿⠀⠀⠀⣿⡇⠀⣿⡆⠀⠀⣿⠇⠀⠀⢻⡇⠀⣿⡇⠀⠀⢸⣿⠀⠀⣠⣤⣤⣽⡇⠀⢸⡇⠀⢻⣧⣄⣀⠀⠀⠀⠀⠀⠀⠀⠀⠀⠀⠀⠀⣀⣀⣀⣾⣿⣿⣿⣿⣿⣿⣿⣿⣿⣿⣿⣿⣿⣿⣿⣿⣿⣧⡀⠀
# ⠸⣿⠀⠀⠀⣿⡄⠀⢀⣿⡇⠀⣿⡇⠀⠀⢿⣇⠀⢀⣼⡇⠀⣿⡇⠀⠀⢸⣿⠀⢸⣏⠀⠀⣼⡇⠀⢸⡇⠀⡀⠀⠉⢹⣷⠀⠀⠀⠀⠀⠀⠀⣀⣴⣾⣿⣿⡟⢸⣿⣿⣿⣿⣿⣿⣿⣿⣿⣿⣿⣿⣿⣿⣿⣿⣿⣿⣿⣷⠀
# ⠀⠙⠛⠛⠀⠈⠛⠛⠋⠛⠁⠀⠈⠛⠛⠃⠈⠛⠛⠛⠋⠀⠀⠛⠃⠀⠀⠘⠛⠀⠈⠛⠛⠛⠙⠃⠀⠘⠃⠀⠙⠛⠛⠛⠁⠀⠀⠀⠀⠀⢠⣾⣿⣿⣿⣿⣿⠀⣼⣿⣿⣿⣿⣿⣿⣿⣿⣿⣿⣿⣿⣿⣿⣿⣿⣿⣿⣿⣿⡇
# ⠀⠀⠀⠀⠀⠀⠀⠀⠀⠀⠀⠀⠀⠀⠀⠀⠀⠀⠀⠀⠀⠀⠀⠀⠀⠀⠀⠀⠀⠀⠀⠀⠀⠀⠀⠀⠀⠀⠀⠀⠀⠀⠀⠀⠀⠀⠀⠀⣠⣴⣿⣿⣿⣿⣿⣿⣿⡀⣿⣿⣿⣿⣿⣿⣿⣿⣿⣿⣿⣿⣿⣿⣿⣿⣿⣿⣿⣿⣿⣿
#⠀ ⠀⠀⠀⠀⠀⠀⠀⠀⠀⠀⠀⠀⠀⠀⠀⠀⠀⠀⠀⠀⠀⠀⠀⠀⠀⠀⠀⠀⠀⠀⠀⠀⠀⠀⠀⠀⠀⠀⠀⠀⠀⠀⠀⠀⠀⠀⢰⣿⣿⣿⣿⣿⣿⣿⣿⣿⡇⢻⣿⣿⣿⣿⣿⣿⣿⣿⣿⣿⣿⣿⣿⣿⣿⣿⣿⣿⣿⣿⡏
# ⠀⠀⠀⠀⠀⠀⠀⠀⠀⠀⠀⠀⠀⠀⠀⠀⠀⠀⠀⠀⠀⠀⠀⠀⠀⠀⠀⠀⠀⠀⠀⠀⠀⠀⠀⠀⠀⠀⠀⠀⠀⠀⠀⠀⠀⠀⠀⠸⣿⣿⣿⣿⣿⣿⣿⣿⣿⣿⡘⣿⣿⣿⣿⣿⡏⣼⣿⣿⣿⣿⣿⣿⣿⣿⣿⣿⣿⣿⣿⠁
# ⠀⠀⠀⠀⠀⠀⠀⠀⠀⠀⠀⠀⠀⠀⠀⠀⠀⠀⠀⠀⠀⠀⠀⠀⠀⠀⠀⠀⠀⠀⠀⠀⠀⠀⠀⠀⠀⠀⠀⠀⠀⠀⠀⠀⠀⠀⠀⠀⠨⣿⣿⣿⣿⣿⣿⣿⣿⣿⣷⡈⠻⣿⣿⣿⣇⠸⣿⣿⣿⣿⣿⣿⡿⢻⣿⣿⠿⠋⠁⠀
# ⠀⠀⠀⠀⠀⠀⠀⠀⠀⠀⠀⠀⠀⠀⠀⠀⠀⠀⠀⠀⠀⠀⠀⠀⠀⠀⠀⠀⠀⠀⠀⠀⠀⠀⠀⠀⠀⠀⠀⠀⠀⠀⠀⠀⠀⠀⠀⠀⠀⢻⣿⣿⣿⣿⣿⣿⣿⣿⣿⣷⡀⠈⠻⢿⣿⣦⣈⠙⠛⠛⠛⣁⣴⡿⠛⠁⠀⠀⠀⠀
# ⠀⠀⠀⠀⠀⠀⠀⠀⠀⠀⠀⠀⠀⠀⠀⠀⠀⠀⠀⠀⠀⠀⠀⠀⠀⠀⠀⠀⠀⠀⠀⠀⠀⠀⠀⠀⠀⠀⠀⠀⠀⠀⠀⠀⠀⠀⠀⠀⠀⠀⠻⣿⣿⣿⣿⣿⣿⣿⣿⣿⣿⣦⡀⠀⠈⠉⠛⠛⠓⠚⠋⠉⠁⠀⠀⠀⠀⠀⠀⠀
# ⠀⠀⠀⠀⠀⠀⠀⠀⠀⠀⠀⠀⠀⠀⠀⠀⠀⠀⠀⠀⠀⠀⠀⠀⠀⠀⠀⠀⠀⠀⠀⠀⠀⠀⠀⠀⠀⠀⠀⠀⠀⠀⠀⠀⠀⠀⠀⠀⠀⠀⠀⠀⠙⠻⠿⣿⣿⣿⣿⡿⠟⠋⠀

units lj
dimension 3
atom_style molecular
bond_style harmonic
pair_style lj/cut 2.5
boundary p p p

# cubic box
region simulation_box block -20 20 -20 20 -20 20
# small elongated box
# region simulation_box block -20 20 -6 6 -6 6
create_box 2 simulation_box bond/types 1 extra/bond/per/atom 1
Created orthogonal box = (-20 -20 -20) to (20 20 20)
  1 by 1 by 1 MPI processor grid
molecule dumbell dumbell.mol
ERROR on proc 0: Cannot open molecule file dumbell.mol: No such file or directory (src/molecule.cpp:143)
Last command: molecule dumbell dumbell.mol
