ITEM: TIMESTEP
0
ITEM: NUMBER OF ATOMS
1626
ITEM: BOX BOUNDS pp pp ff
-1.2120000000000001e+01 1.2120000000000001e+01
-1.2120000000000001e+01 1.2120000000000001e+01
-2.0199999999999999e+01 2.0199999999999999e+01
ITEM: ATOMS id type xs ys zs
1 5 0 0 0.1
2 5 0.0833333 0.0833333 0.1
3 5 0.166667 0 0.1
4 5 0 0.166667 0.1
5 5 0.166667 0.166667 0.1
6 5 0.0833333 0 0.15
7 5 0 0.0833333 0.15
8 5 0.166667 0.0833333 0.15
9 5 0.0833333 0.166667 0.15
10 5 0 0 0.2
11 5 0.0833333 0.0833333 0.2
12 5 0.166667 0 0.2
13 5 0 0.166667 0.2
14 5 0.166667 0.166667 0.2
2377 3 0.185051 0.151552 0.350722
1039 1 0.238286 0.239926 0.297205
924 2 0.218155 0.000516101 0.353176
436 1 0.0747847 0.0696726 0.300507
437 2 0.112965 0.0737917 0.294861
438 2 0.0622503 0.106536 0.304631
921 2 0.223564 0.101752 0.298755
563 2 0.172328 0.220218 0.356665
449 2 0.149005 0.0630632 0.360727
448 1 0.174235 0.0926644 0.356464
443 2 0.0278163 0.06696 0.349537
452 2 0.0292771 0.153065 0.300305
445 1 0.180031 0.00794885 0.30259
450 2 0.176761 0.0942723 0.332809
447 2 0.143288 0.0131773 0.31077
486 2 0.169658 0.147847 0.415638
485 2 0.16018 0.195195 0.391806
484 1 0.170163 0.156958 0.392556
463 1 0.0789962 0.0766642 0.408424
464 2 0.11361 0.0731734 0.397152
465 2 0.057394 0.100162 0.394424
483 2 0.0789859 0.158621 0.468579
482 2 0.07261 0.168975 0.43178
468 2 0.100235 0.0132557 0.435537
469 1 0.00857751 0.0785826 0.45769
470 2 0.0205932 0.0811062 0.43514
481 1 0.0984041 0.172405 0.449641
479 2 0.0277656 0.151125 0.396717
473 2 0.159397 0.00210314 0.418832
474 2 0.158114 0.00105658 0.381331
1093 1 0.240394 0.242802 0.493529
1067 2 0.242314 0.224377 0.410846
1066 1 0.243932 0.246625 0.39126
490 1 0.0715367 0.0841286 0.49341
491 2 0.108279 0.0703708 0.490473
975 2 0.223501 0.0919494 0.490215
583 1 0.0747364 0.237627 0.396531
584 2 0.113696 0.23905 0.400484
951 2 0.227633 0.0232253 0.45099
1000 1 0.247176 0.0701005 0.594724
1002 2 0.236053 0.0772284 0.617083
973 1 0.249051 0.0672572 0.50062
638 2 0.113657 0.239091 0.598816
522 2 0.160345 0.0288441 0.592166
492 2 0.0701843 0.0955006 0.516116
520 1 0.164352 0.00214243 0.609496
519 2 0.102492 0.0980559 0.612849
617 2 0.18774 0.238985 0.563104
518 2 0.0790298 0.0635132 0.584927
616 1 0.15767 0.237143 0.547741
500 2 0.186905 0.0161509 0.511572
517 1 0.0684777 0.0884309 0.602224
555 2 0.172739 0.148637 0.684349
554 2 0.157407 0.194437 0.708172
2392 4 0.0774811 0.224838 0.642897
1147 1 0.239739 0.237607 0.700745
1029 2 0.24967 0.0777513 0.719079
553 1 0.169854 0.156927 0.707479
535 1 0.152906 0.0755197 0.651898
536 2 0.181681 0.0647604 0.636964
537 2 0.165413 0.10972 0.661138
1028 2 0.235811 0.0824564 0.682607
665 2 0.0914826 0.226566 0.687604
664 1 0.0831275 0.242768 0.708655
551 2 0.0155917 0.194081 0.704146
653 2 0.149194 0.223395 0.646751
652 1 0.179833 0.244686 0.654602
544 1 0.0745684 0.0698436 0.699238
545 2 0.0774634 0.0939841 0.717945
546 2 0.0979681 0.0861723 0.682817
650 2 0.0291631 0.236383 0.648468
15 5 0 0 0.8
16 5 0.0833333 0.0833333 0.8
17 5 0.0833333 0 0.85
18 5 0 0.0833333 0.85
19 5 0.166667 0 0.8
20 5 0.166667 0.0833333 0.85
21 5 0 0.166667 0.8
22 5 0.0833333 0.166667 0.85
23 5 0.166667 0.166667 0.8
24 5 0 0 0.9
25 5 0.0833333 0.0833333 0.9
26 5 0.166667 0 0.9
27 5 0 0.166667 0.9
28 5 0.166667 0.166667 0.9
29 5 0.0833333 0.25 0.1
30 5 0 0.333333 0.1
31 5 0.0833333 0.416667 0.1
32 5 0.166667 0.333333 0.1
33 5 0 0.25 0.15
34 5 0.166667 0.25 0.15
35 5 0.0833333 0.333333 0.15
36 5 0 0.416667 0.15
37 5 0.166667 0.416667 0.15
38 5 0.0833333 0.25 0.2
39 5 0 0.333333 0.2
40 5 0.0833333 0.416667 0.2
41 5 0.166667 0.333333 0.2
1050 2 0.225096 0.437116 0.298796
1048 1 0.244564 0.403023 0.295988
582 2 0.152085 0.445351 0.348412
581 2 0.192921 0.398007 0.348669
580 1 0.154994 0.406643 0.352919
579 2 0.161178 0.304646 0.308256
562 1 0.155597 0.256027 0.356047
578 2 0.169633 0.365432 0.301086
564 2 0.172075 0.273755 0.337288
577 1 0.169189 0.329921 0.290658
1041 2 0.236619 0.279327 0.298907
677 2 0.00119743 0.471003 0.291511
568 1 0.0782667 0.426526 0.307037
569 2 0.0723992 0.387546 0.305192
570 2 0.0993341 0.435928 0.287771
571 1 0.0676395 0.335952 0.348384
572 2 0.0862037 0.301177 0.350215
573 2 0.0961568 0.362872 0.351402
1194 2 0.238937 0.488635 0.433127
1077 2 0.227075 0.437795 0.405036
585 2 0.0615681 0.273323 0.402984
1075 1 0.242523 0.402366 0.400038
587 2 0.0276594 0.258477 0.458602
744 2 0.175173 0.480371 0.485491
710 2 0.0931693 0.470838 0.455856
709 1 0.067637 0.498092 0.448066
633 2 0.162908 0.362821 0.49244
603 2 0.0223781 0.404936 0.46206
623 2 0.0970144 0.434721 0.486196
594 2 0.0221059 0.338498 0.386225
595 1 0.0729706 0.404575 0.398433
596 2 0.0875182 0.430123 0.382571
597 2 0.0895111 0.415302 0.418996
622 1 0.0840442 0.401602 0.496556
1219 1 0.248568 0.48399 0.549145
648 2 0.184762 0.344379 0.585389
647 2 0.152249 0.337416 0.617159
1107 2 0.23063 0.319104 0.537065
1095 2 0.238887 0.280262 0.501065
646 1 0.162989 0.318206 0.597452
645 2 0.0637904 0.442355 0.600458
644 2 0.112871 0.403648 0.599583
618 2 0.15459 0.273872 0.539155
643 1 0.0733391 0.403997 0.599959
620 2 0.0283607 0.348271 0.50232
763 1 0.156752 0.487437 0.598759
764 2 0.196011 0.486782 0.601548
639 2 0.0556658 0.259219 0.591688
624 2 0.0689413 0.413677 0.517248
625 1 0.0771923 0.318482 0.549123
626 2 0.114169 0.330242 0.544566
627 2 0.0586386 0.351276 0.556311
628 1 0.0103608 0.428142 0.552774
629 2 0.00684198 0.391485 0.561407
637 1 0.0806773 0.25169 0.609496
631 1 0.15167 0.327475 0.500658
632 2 0.185422 0.309704 0.506902
742 1 0.154947 0.492038 0.504635
738 2 0.0626224 0.475273 0.550865
1255 1 0.239946 0.495767 0.642865
1154 2 0.242094 0.406637 0.717792
1155 2 0.246845 0.415204 0.680741
672 2 0.0562158 0.417461 0.710503
671 2 0.11133 0.429761 0.694399
654 2 0.170973 0.281919 0.648648
655 1 0.0839334 0.317212 0.650226
656 2 0.104494 0.342724 0.663503
657 2 0.0615728 0.340064 0.636271
1149 2 0.248372 0.258744 0.681378
773 2 0.0570859 0.481301 0.648825
670 1 0.0824537 0.402779 0.695098
661 1 0.157219 0.413031 0.64246
662 2 0.195723 0.405202 0.6451
663 2 0.147058 0.431767 0.66244
669 2 0.0164093 0.355624 0.709973
666 2 0.0753899 0.280667 0.703741
772 1 0.0939924 0.491136 0.654956
42 5 0.0833333 0.25 0.8
43 5 0 0.25 0.85
44 5 0.166667 0.25 0.85
45 5 0 0.333333 0.8
46 5 0.0833333 0.416667 0.8
47 5 0.0833333 0.333333 0.85
48 5 0 0.416667 0.85
49 5 0.166667 0.333333 0.8
50 5 0.166667 0.416667 0.85
51 5 0.0833333 0.25 0.9
52 5 0 0.333333 0.9
53 5 0.0833333 0.416667 0.9
54 5 0.166667 0.333333 0.9
55 5 0 0.5 0.1
56 5 0.0833333 0.583333 0.1
57 5 0.166667 0.5 0.1
58 5 0 0.666667 0.1
59 5 0.166667 0.666667 0.1
60 5 0.0833333 0.5 0.15
61 5 0 0.583333 0.15
62 5 0.166667 0.583333 0.15
63 5 0.0833333 0.666667 0.15
64 5 0 0.5 0.2
65 5 0.0833333 0.583333 0.2
66 5 0.166667 0.5 0.2
67 5 0 0.666667 0.2
68 5 0.166667 0.666667 0.2
676 1 0.00959335 0.509301 0.294571
1282 1 0.239781 0.740116 0.30458
1182 2 0.231194 0.649479 0.3381
679 1 0.0852526 0.574206 0.292099
680 2 0.084691 0.613677 0.293432
681 2 0.0800563 0.562117 0.314469
1180 1 0.243277 0.681335 0.350137
699 2 0.0886441 0.694024 0.340218
1162 1 0.236572 0.582154 0.294677
698 2 0.0924403 0.644366 0.362899
807 2 0.159514 0.739529 0.367815
697 1 0.0689156 0.661611 0.346884
695 2 0.0246325 0.650684 0.308055
805 1 0.155369 0.74339 0.344337
803 2 0.0297219 0.737394 0.350202
729 2 0.168236 0.667818 0.419337
1338 2 0.238198 0.732753 0.485234
728 2 0.173113 0.679159 0.382561
706 1 0.071596 0.572692 0.398159
707 2 0.110565 0.5661 0.39882
708 2 0.067839 0.611208 0.403021
727 1 0.158651 0.653023 0.398103
1309 1 0.240207 0.737656 0.402091
711 2 0.0891938 0.53107 0.446079
1218 2 0.226499 0.60091 0.491924
713 2 0.0159677 0.560775 0.439986
1208 2 0.224687 0.686669 0.449246
723 2 0.00417982 0.687524 0.385427
722 2 0.00356679 0.637314 0.407779
1207 1 0.243977 0.652905 0.453537
718 1 0.160659 0.590193 0.457988
719 2 0.179674 0.607828 0.440082
720 2 0.159667 0.551979 0.451929
1190 2 0.231325 0.579533 0.384363
1189 1 0.241845 0.576095 0.407137
853 1 0.0695873 0.743608 0.496681
834 2 0.194335 0.741129 0.458447
826 1 0.0758865 0.740711 0.393464
828 2 0.10379 0.730026 0.408999
832 1 0.155254 0.74202 0.454892
771 2 0.197612 0.667388 0.594491
1365 2 0.248774 0.749403 0.619355
770 2 0.143293 0.673715 0.612677
1221 2 0.220594 0.51138 0.545833
1216 1 0.242612 0.569894 0.503012
769 1 0.159096 0.658897 0.592832
736 1 0.078657 0.509875 0.557125
737 2 0.108721 0.514852 0.54201
768 2 0.0187186 0.692855 0.601493
766 1 0.00511365 0.659316 0.591945
740 2 0.0199164 0.579917 0.565109
765 2 0.147237 0.525781 0.599693
762 2 0.0865795 0.572556 0.581843
743 2 0.16988 0.527591 0.509874
761 2 0.0772467 0.578259 0.618779
745 1 0.176893 0.589535 0.5435
746 2 0.1841 0.580865 0.566238
747 2 0.139006 0.5796 0.540262
760 1 0.0861738 0.599185 0.599377
857 2 0.0291789 0.739776 0.54442
854 2 0.0824196 0.744775 0.519109
751 1 0.0735643 0.65801 0.555693
752 2 0.110468 0.649251 0.548995
753 2 0.0659674 0.69274 0.545312
798 2 0.14878 0.690271 0.707714
797 2 0.170308 0.636122 0.694115
774 2 0.0989217 0.527563 0.646219
796 1 0.180913 0.673607 0.698171
2393 4 0.130453 0.521683 0.672243
777 2 0.0187955 0.575755 0.63492
778 1 0.171854 0.569762 0.654214
779 2 0.187787 0.588668 0.635702
780 2 0.140359 0.59157 0.660085
2378 3 0.0205121 0.747246 0.683539
1272 2 0.225139 0.597604 0.691086
1270 1 0.243218 0.571843 0.705446
1257 2 0.249027 0.532271 0.650171
789 2 0.0685164 0.606758 0.690065
786 2 0.031764 0.505227 0.701488
787 1 0.0720009 0.57202 0.7012
788 2 0.109483 0.571222 0.708735
896 2 0.197448 0.740619 0.651576
895 1 0.158249 0.736233 0.649946
69 5 0 0.5 0.8
70 5 0.0833333 0.583333 0.8
71 5 0.0833333 0.5 0.85
72 5 0 0.583333 0.85
73 5 0.166667 0.5 0.8
74 5 0.166667 0.583333 0.85
75 5 0 0.666667 0.8
76 5 0.0833333 0.666667 0.85
77 5 0.166667 0.666667 0.8
78 5 0 0.5 0.9
79 5 0.0833333 0.583333 0.9
80 5 0.166667 0.5 0.9
81 5 0 0.666667 0.9
82 5 0.166667 0.666667 0.9
83 5 0.0833333 0.75 0.1
84 5 0 0.833333 0.1
85 5 0.0833333 0.916667 0.1
86 5 0.166667 0.833333 0.1
87 5 0 0.75 0.15
88 5 0.166667 0.75 0.15
89 5 0.0833333 0.833333 0.15
90 5 0 0.916667 0.15
91 5 0.166667 0.916667 0.15
92 5 0.0833333 0.75 0.2
93 5 0 0.833333 0.2
94 5 0.0833333 0.916667 0.2
95 5 0.166667 0.833333 0.2
2395 4 0.158792 0.816336 0.361887
2394 4 0.234364 0.952348 0.344254
1296 2 0.225656 0.814607 0.355973
1291 1 0.238459 0.911236 0.294069
822 2 0.161383 0.852113 0.284565
821 2 0.176354 0.829314 0.318321
820 1 0.162263 0.818572 0.297114
806 2 0.185117 0.767081 0.337847
1283 2 0.236685 0.754488 0.282559
446 2 0.176681 0.978874 0.28664
435 2 0.0133124 0.996607 0.317531
816 2 0.0841652 0.806519 0.339221
815 2 0.0877927 0.865113 0.352131
814 1 0.0780421 0.828368 0.358648
852 2 0.148613 0.943338 0.451362
827 2 0.0703234 0.779263 0.397537
851 2 0.195356 0.90186 0.450171
850 1 0.15603 0.904803 0.448467
849 2 0.179433 0.803973 0.402505
1323 2 0.225067 0.852389 0.445444
848 2 0.147232 0.857303 0.405698
833 2 0.150411 0.766851 0.436661
847 1 0.173335 0.838724 0.391798
1321 1 0.244002 0.818369 0.449574
1311 2 0.231204 0.77614 0.401447
843 2 0.100682 0.859199 0.455107
838 1 0.0708277 0.906909 0.40178
839 2 0.0955163 0.923265 0.417498
840 2 0.083656 0.919826 0.380722
841 1 0.0708954 0.833259 0.456169
842 2 0.0784231 0.807543 0.438724
462 2 0.0109339 0.989549 0.417115
466 1 0.0936094 0.999694 0.457463
467 2 0.0561554 0.98705 0.457
472 1 0.182489 0.99684 0.399837
488 2 0.0310985 0.993511 0.496543
499 1 0.175287 0.997037 0.49201
501 2 0.137807 0.986812 0.496418
855 2 0.0979931 0.761617 0.48421
949 1 0.241568 0.986438 0.448608
866 2 0.057907 0.932272 0.492593
867 2 0.113407 0.905199 0.498474
874 1 0.172565 0.83834 0.491503
875 2 0.139771 0.817219 0.495377
891 2 0.195276 0.844164 0.606196
890 2 0.14592 0.809233 0.59665
889 1 0.158804 0.846603 0.597154
888 2 0.110084 0.933233 0.595658
887 2 0.0661724 0.898074 0.612033
886 1 0.0737434 0.918693 0.592308
884 2 0.0246734 0.818561 0.591193
2380 3 0.0768077 0.906445 0.547208
2379 3 0.1767 0.790002 0.523047
1345 1 0.23552 0.920266 0.503688
976 1 0.233931 0.999487 0.549163
515 2 0.0301182 0.996381 0.593367
865 1 0.0786857 0.912529 0.508934
521 2 0.175303 0.969013 0.598338
873 2 0.0110337 0.927883 0.566916
868 1 0.0742434 0.827152 0.542912
869 2 0.113704 0.827739 0.544348
870 2 0.0620523 0.845109 0.56274
876 2 0.187664 0.844441 0.51312
872 2 0.00300473 0.897794 0.534386
918 2 0.146903 0.858864 0.700015
917 2 0.196318 0.820557 0.69995
916 1 0.15678 0.82058 0.700035
2381 3 0.164093 0.916404 0.697815
1396 1 0.239251 0.911498 0.706522
897 2 0.144303 0.773148 0.648478
898 1 0.0863596 0.817733 0.651684
899 2 0.100777 0.849051 0.663296
900 2 0.0628632 0.833216 0.635019
1398 2 0.242645 0.947787 0.697328
1392 2 0.217872 0.751707 0.698378
911 2 0.0300437 0.821567 0.6993
904 1 0.156062 0.90481 0.651629
905 2 0.194363 0.901392 0.646111
906 2 0.149575 0.943798 0.65226
1383 2 0.2246 0.846181 0.659143
1381 1 0.245272 0.818385 0.647707
543 2 0.0161577 0.998015 0.716729
96 5 0.0833333 0.75 0.8
97 5 0 0.75 0.85
98 5 0.166667 0.75 0.85
99 5 0 0.833333 0.8
100 5 0.0833333 0.916667 0.8
101 5 0.0833333 0.833333 0.85
102 5 0 0.916667 0.85
103 5 0.166667 0.833333 0.8
104 5 0.166667 0.916667 0.85
105 5 0.0833333 0.75 0.9
106 5 0 0.833333 0.9
107 5 0.0833333 0.916667 0.9
108 5 0.166667 0.833333 0.9
109 5 0.25 0.0833333 0.1
110 5 0.333333 0 0.1
111 5 0.416667 0.0833333 0.1
112 5 0.333333 0.166667 0.1
113 5 0.25 0 0.15
114 5 0.416667 0 0.15
115 5 0.333333 0.0833333 0.15
116 5 0.25 0.166667 0.15
117 5 0.416667 0.166667 0.15
118 5 0.25 0.0833333 0.2
119 5 0.333333 0 0.2
120 5 0.416667 0.0833333 0.2
121 5 0.333333 0.166667 0.2
919 1 0.262264 0.0938074 0.299678
920 2 0.264172 0.0544411 0.301567
945 2 0.400222 0.167575 0.366662
944 2 0.428538 0.181164 0.334224
923 2 0.275337 0.000902254 0.338005
943 1 0.42124 0.151262 0.349114
942 2 0.310559 0.189518 0.300752
1423 1 0.489628 0.171869 0.306729
1424 2 0.482081 0.148445 0.288161
1040 2 0.275095 0.230747 0.303888
940 1 0.326032 0.154074 0.295821
933 2 0.417776 0.0159933 0.333185
931 1 0.430183 0.00435309 0.354599
941 2 0.36341 0.156409 0.303427
1560 2 0.489597 0.236272 0.433615
1477 1 0.486591 0.164602 0.494758
1461 2 0.493586 0.0289605 0.49235
1452 2 0.481862 0.188755 0.40901
1442 2 0.496136 0.114842 0.453533
1434 2 0.479864 0.02518 0.401027
1073 2 0.363562 0.242799 0.444741
1072 1 0.325525 0.235886 0.449713
982 1 0.403366 0.075173 0.497533
981 2 0.316669 0.0129684 0.485345
1011 2 0.320972 0.179314 0.616208
974 2 0.277448 0.0907934 0.509166
1010 2 0.352553 0.145569 0.590941
1009 1 0.326475 0.175117 0.592851
977 2 0.259333 0.0216098 0.536741
1585 1 0.486213 0.248662 0.545033
979 1 0.332815 0.0111829 0.506974
1478 2 0.489475 0.177774 0.517058
1495 1 0.48678 0.158778 0.597097
1004 2 0.324291 0.0218867 0.613168
983 2 0.439642 0.0607524 0.501298
984 2 0.406992 0.114075 0.50117
1001 2 0.266771 0.102671 0.588193
999 2 0.409124 0.169099 0.531221
987 2 0.421559 0.020878 0.564482
988 1 0.335996 0.0708895 0.544046
989 2 0.303583 0.0933998 0.545509
990 2 0.36042 0.0857107 0.560445
1497 2 0.490988 0.197654 0.600605
1459 1 0.495709 0.00137593 0.509297
998 2 0.420304 0.179762 0.567572
1100 2 0.30325 0.23836 0.550827
997 1 0.420572 0.151139 0.551207
1094 2 0.270719 0.226936 0.505407
1038 2 0.318031 0.145981 0.688299
1037 2 0.353221 0.191673 0.702787
1621 1 0.487558 0.242155 0.653983
1036 1 0.328748 0.162347 0.708914
1515 2 0.492974 0.0287715 0.692287
1017 2 0.406664 0.0299965 0.646085
1524 2 0.477562 0.154082 0.688295
1506 2 0.486128 0.110085 0.643047
1136 2 0.365185 0.248257 0.647007
1135 1 0.32868 0.234648 0.651053
1030 1 0.326324 0.00908998 0.693194
1031 2 0.31442 0.00345807 0.715563
1024 1 0.419218 0.171522 0.640894
1025 2 0.392229 0.145686 0.648655
1026 2 0.438553 0.182793 0.66045
1027 1 0.264519 0.0897923 0.698314
122 5 0.25 0.0833333 0.8
123 5 0.25 0 0.85
124 5 0.333333 0 0.8
125 5 0.416667 0.0833333 0.8
126 5 0.416667 0 0.85
127 5 0.333333 0.0833333 0.85
128 5 0.25 0.166667 0.85
129 5 0.333333 0.166667 0.8
130 5 0.416667 0.166667 0.85
131 5 0.25 0.0833333 0.9
132 5 0.333333 0 0.9
133 5 0.416667 0.0833333 0.9
134 5 0.333333 0.166667 0.9
135 5 0.25 0.25 0.1
136 5 0.416667 0.25 0.1
137 5 0.25 0.416667 0.1
138 5 0.333333 0.333333 0.1
139 5 0.416667 0.416667 0.1
140 5 0.333333 0.25 0.15
141 5 0.25 0.333333 0.15
142 5 0.416667 0.333333 0.15
143 5 0.333333 0.416667 0.15
144 5 0.25 0.25 0.2
145 5 0.416667 0.25 0.2
146 5 0.25 0.416667 0.2
147 5 0.333333 0.333333 0.2
148 5 0.416667 0.416667 0.2
1650 2 0.471975 0.484381 0.297832
1548 2 0.478913 0.438804 0.343774
1537 1 0.483963 0.332904 0.298956
1174 1 0.414006 0.485019 0.353226
1169 2 0.339466 0.472004 0.30892
1168 1 0.319169 0.497639 0.295583
1049 2 0.28034 0.409861 0.305217
1675 1 0.490137 0.48736 0.401102
1564 1 0.485028 0.338814 0.398507
1068 2 0.263754 0.278999 0.397894
1223 2 0.362199 0.485779 0.498416
1089 2 0.395413 0.356539 0.454335
1222 1 0.322745 0.487877 0.499308
1088 2 0.445443 0.323852 0.443307
1087 1 0.409144 0.319609 0.452358
1074 2 0.310913 0.271315 0.455545
1196 2 0.338306 0.484979 0.383114
1076 2 0.280402 0.409838 0.394925
1195 1 0.318792 0.494893 0.40287
1192 1 0.250778 0.487027 0.45574
1113 2 0.40306 0.443944 0.493615
1111 1 0.406158 0.405091 0.4976
1081 1 0.336353 0.328834 0.40912
1082 2 0.350635 0.360294 0.397586
1083 2 0.313012 0.310871 0.393294
1134 2 0.405025 0.432764 0.615271
1133 2 0.413741 0.405633 0.581879
1132 1 0.431234 0.411603 0.60285
2398 4 0.460014 0.449668 0.526551
1131 2 0.306948 0.351606 0.597891
1130 2 0.364977 0.330177 0.603347
1099 1 0.336656 0.250731 0.540535
1129 1 0.328075 0.318217 0.598762
1101 2 0.360094 0.26091 0.558638
2397 4 0.433053 0.319065 0.508598
2396 4 0.420265 0.397965 0.536251
2382 3 0.473219 0.388572 0.588753
1105 1 0.260345 0.321752 0.552634
1106 2 0.259026 0.359144 0.560301
1729 1 0.496757 0.48457 0.597937
1602 2 0.494126 0.428067 0.567778
1614 2 0.483187 0.349371 0.61345
1586 2 0.490802 0.25914 0.567741
1229 2 0.447651 0.4936 0.553864
1112 2 0.440782 0.400965 0.508785
1228 1 0.409186 0.485798 0.550996
1114 1 0.409997 0.324966 0.557248
1115 2 0.446032 0.320386 0.54788
1116 2 0.393971 0.354647 0.544872
1161 2 0.398913 0.390566 0.704069
1160 2 0.425172 0.447298 0.703385
1137 2 0.306135 0.267095 0.65194
1159 1 0.425915 0.412136 0.692546
1756 1 0.494646 0.484777 0.699963
1623 2 0.48726 0.265283 0.634743
1141 1 0.410199 0.334044 0.65886
1142 2 0.3922 0.340334 0.638078
1143 2 0.447601 0.325622 0.653061
1273 1 0.323702 0.487606 0.702247
1274 2 0.363098 0.489365 0.703952
1259 2 0.445898 0.486806 0.652237
1258 1 0.406431 0.488663 0.653124
1148 2 0.261889 0.253648 0.717877
1256 2 0.261027 0.471962 0.656964
1153 1 0.261062 0.428159 0.701467
149 5 0.25 0.25 0.8
150 5 0.416667 0.25 0.8
151 5 0.333333 0.25 0.85
152 5 0.25 0.416667 0.8
153 5 0.25 0.333333 0.85
154 5 0.333333 0.333333 0.8
155 5 0.416667 0.416667 0.8
156 5 0.416667 0.333333 0.85
157 5 0.333333 0.416667 0.85
158 5 0.25 0.25 0.9
159 5 0.416667 0.25 0.9
160 5 0.25 0.416667 0.9
161 5 0.333333 0.333333 0.9
162 5 0.416667 0.416667 0.9
163 5 0.25 0.583333 0.1
164 5 0.333333 0.5 0.1
165 5 0.416667 0.583333 0.1
166 5 0.333333 0.666667 0.1
167 5 0.25 0.5 0.15
168 5 0.416667 0.5 0.15
169 5 0.333333 0.583333 0.15
170 5 0.25 0.666667 0.15
171 5 0.416667 0.666667 0.15
172 5 0.25 0.583333 0.2
173 5 0.333333 0.5 0.2
174 5 0.416667 0.583333 0.2
175 5 0.333333 0.666667 0.2
1188 2 0.412559 0.683823 0.333776
1163 2 0.252376 0.614785 0.304139
1164 2 0.261052 0.553062 0.301184
1187 2 0.41741 0.664426 0.36932
1186 1 0.420031 0.651751 0.346904
1666 1 0.498132 0.68204 0.297277
1668 2 0.478492 0.650355 0.289372
1659 2 0.472237 0.598199 0.34573
1170 2 0.341365 0.530358 0.295497
1171 1 0.41684 0.576486 0.291233
1172 2 0.392632 0.568452 0.309359
1173 2 0.440528 0.605061 0.299408
1657 1 0.498503 0.568652 0.346083
1175 2 0.446393 0.507139 0.35623
1176 2 0.389601 0.507842 0.340544
1177 1 0.328036 0.586291 0.358972
1178 2 0.350334 0.609625 0.345269
1179 2 0.321631 0.554084 0.345759
1181 2 0.275529 0.669186 0.361763
1648 1 0.496854 0.515088 0.29713
1289 2 0.356008 0.743768 0.336726
1288 1 0.32014 0.742535 0.34668
1802 2 0.481796 0.727654 0.45873
1686 2 0.497424 0.602386 0.465563
1191 2 0.27683 0.594372 0.4085
1684 1 0.485977 0.575367 0.449663
1193 2 0.260285 0.524338 0.461134
1677 2 0.480215 0.524995 0.396928
1341 2 0.387074 0.743561 0.493285
1339 1 0.426351 0.747826 0.492366
1197 2 0.342902 0.520128 0.414016
1315 1 0.32239 0.738875 0.452466
1314 2 0.414625 0.731684 0.384094
1312 1 0.419849 0.739556 0.40713
1310 2 0.278589 0.736203 0.396462
1209 2 0.281336 0.660426 0.447217
1239 2 0.30746 0.683231 0.494041
1227 2 0.416836 0.564666 0.484194
1730 2 0.481042 0.516871 0.588024
1217 2 0.280888 0.579196 0.505064
1713 2 0.483442 0.573737 0.565602
1364 2 0.250679 0.734905 0.58288
1220 2 0.280837 0.504631 0.555021
1367 2 0.396946 0.743615 0.585148
1368 2 0.441842 0.742437 0.611248
1343 2 0.359235 0.7333 0.544225
1224 2 0.315057 0.526344 0.502276
1225 1 0.417264 0.572928 0.507392
1226 2 0.4159 0.612406 0.508414
1342 1 0.326373 0.740595 0.556668
1336 1 0.256427 0.739007 0.505948
1240 1 0.409409 0.665544 0.541378
1230 2 0.393163 0.520602 0.545141
1231 1 0.34553 0.578385 0.555602
1232 2 0.347021 0.603584 0.537343
1233 2 0.307449 0.568031 0.557055
1241 2 0.44206 0.64685 0.548671
1238 2 0.364461 0.665289 0.505076
1242 2 0.398531 0.687606 0.559951
1237 1 0.328078 0.65148 0.500883
1865 2 0.471546 0.749993 0.640845
1758 2 0.474863 0.517435 0.693806
1390 1 0.252705 0.73571 0.704195
1278 2 0.437055 0.5921 0.71407
1277 2 0.409102 0.56498 0.684722
1260 2 0.397671 0.524531 0.64464
1261 1 0.325836 0.569309 0.651646
1262 2 0.36161 0.580498 0.659194
1263 2 0.312554 0.600192 0.63916
1276 1 0.403843 0.59292 0.701208
1275 2 0.3132 0.523029 0.693801
1379 2 0.350537 0.749005 0.666382
1267 1 0.427998 0.678001 0.651131
1268 2 0.418963 0.658044 0.631383
1269 2 0.403039 0.663956 0.667486
1271 2 0.281643 0.580553 0.703468
1378 1 0.322553 0.738097 0.650954
176 5 0.25 0.583333 0.8
177 5 0.25 0.5 0.85
178 5 0.333333 0.5 0.8
179 5 0.416667 0.583333 0.8
180 5 0.416667 0.5 0.85
181 5 0.333333 0.583333 0.85
182 5 0.25 0.666667 0.85
183 5 0.333333 0.666667 0.8
184 5 0.416667 0.666667 0.85
185 5 0.25 0.583333 0.9
186 5 0.333333 0.5 0.9
187 5 0.416667 0.583333 0.9
188 5 0.333333 0.666667 0.9
189 5 0.25 0.75 0.1
190 5 0.416667 0.75 0.1
191 5 0.25 0.916667 0.1
192 5 0.333333 0.833333 0.1
193 5 0.416667 0.916667 0.1
194 5 0.333333 0.75 0.15
195 5 0.25 0.833333 0.15
196 5 0.416667 0.833333 0.15
197 5 0.333333 0.916667 0.15
198 5 0.25 0.75 0.2
199 5 0.416667 0.75 0.2
200 5 0.25 0.916667 0.2
201 5 0.333333 0.833333 0.2
202 5 0.416667 0.916667 0.2
932 2 0.40204 0.979654 0.362216
922 1 0.256509 0.998582 0.358819
1284 2 0.273534 0.755397 0.312861
1300 1 0.409963 0.912026 0.308356
1305 2 0.389696 0.829247 0.339637
1299 2 0.332787 0.801053 0.2998
1304 2 0.431696 0.838953 0.36681
1303 1 0.428608 0.8318 0.343553
1290 2 0.323852 0.763697 0.366594
1302 2 0.398734 0.941729 0.294223
1292 2 0.260756 0.890249 0.309076
1293 2 0.250785 0.948515 0.296855
1294 1 0.251927 0.82951 0.340665
1295 2 0.272417 0.855883 0.353362
1301 2 0.441303 0.896246 0.297422
1297 1 0.335726 0.837486 0.290754
1298 2 0.331487 0.861461 0.309446
1335 2 0.303637 0.921496 0.457028
1334 2 0.363747 0.926392 0.447131
1333 1 0.332616 0.902112 0.445841
2383 3 0.471756 0.803379 0.453972
1313 2 0.415526 0.778761 0.408776
1818 2 0.479159 0.939879 0.445006
1809 2 0.494517 0.863638 0.394184
1316 2 0.332094 0.751009 0.430652
1317 2 0.345516 0.760115 0.466882
1807 1 0.492974 0.824162 0.39324
1432 1 0.490309 0.9871 0.399815
1353 2 0.3012 0.836063 0.499068
1347 2 0.256042 0.940514 0.487454
1322 2 0.280931 0.829242 0.454982
950 2 0.280799 0.990337 0.450402
1324 1 0.339459 0.829811 0.391295
1325 2 0.322442 0.805091 0.40674
1326 2 0.338099 0.865098 0.401965
1844 2 0.481122 0.9272 0.535611
1337 2 0.255375 0.77824 0.508819
1829 2 0.478909 0.77071 0.542207
986 2 0.427665 0.98192 0.53537
1340 2 0.436575 0.758613 0.514349
1374 2 0.31724 0.810711 0.590111
1373 2 0.34718 0.86244 0.601126
1372 1 0.335581 0.826849 0.608763
1344 2 0.314392 0.776104 0.549107
1003 1 0.336057 0.986594 0.605136
1346 2 0.258437 0.88922 0.508857
1366 1 0.411212 0.763948 0.603605
1363 1 0.250548 0.765692 0.597765
1362 2 0.348852 0.907811 0.566135
985 1 0.400776 0.997202 0.550148
1351 1 0.338625 0.84854 0.50065
1352 2 0.360175 0.815397 0.500282
1361 2 0.331055 0.934744 0.534008
1360 1 0.320093 0.907444 0.549857
1005 2 0.339652 0.99152 0.581697
1359 2 0.414468 0.839536 0.568965
1357 1 0.40655 0.820992 0.548559
1358 2 0.428982 0.839472 0.532475
978 2 0.256736 0.978903 0.564096
980 2 0.350516 0.975849 0.507681
1882 1 0.49594 0.818741 0.69666
1884 2 0.47304 0.850861 0.698263
1380 2 0.326909 0.762898 0.632664
1513 1 0.485745 0.99412 0.702854
1382 2 0.280128 0.835434 0.64315
1401 2 0.316785 0.860884 0.701856
1032 2 0.359255 0.987452 0.691243
1016 2 0.440243 0.978693 0.653426
1015 1 0.403093 0.99131 0.650489
1387 1 0.322512 0.912265 0.64332
1388 2 0.347767 0.889087 0.655142
1389 2 0.329721 0.948648 0.651537
1400 2 0.361197 0.817039 0.699573
1391 2 0.279423 0.762584 0.697428
1399 1 0.322017 0.822078 0.698572
1397 2 0.268104 0.890715 0.69615
203 5 0.25 0.75 0.8
204 5 0.416667 0.75 0.8
205 5 0.333333 0.75 0.85
206 5 0.25 0.916667 0.8
207 5 0.25 0.833333 0.85
208 5 0.333333 0.833333 0.8
209 5 0.416667 0.916667 0.8
210 5 0.416667 0.833333 0.85
211 5 0.333333 0.916667 0.85
212 5 0.25 0.75 0.9
213 5 0.416667 0.75 0.9
214 5 0.25 0.916667 0.9
215 5 0.333333 0.833333 0.9
216 5 0.416667 0.916667 0.9
217 5 0.5 0 0.1
218 5 0.583333 0.0833333 0.1
219 5 0.666667 0 0.1
220 5 0.5 0.166667 0.1
221 5 0.666667 0.166667 0.1
222 5 0.583333 0 0.15
223 5 0.5 0.0833333 0.15
224 5 0.666667 0.0833333 0.15
225 5 0.583333 0.166667 0.15
226 5 0.5 0 0.2
227 5 0.583333 0.0833333 0.2
228 5 0.666667 0 0.2
229 5 0.5 0.166667 0.2
230 5 0.666667 0.166667 0.2
2384 3 0.64765 0.060453 0.313548
1893 2 0.72311 0.0940885 0.291437
1891 1 0.745598 0.0694544 0.304175
1536 2 0.684994 0.225926 0.343239
1534 1 0.668973 0.24969 0.359581
1529 2 0.562512 0.247723 0.285258
1421 2 0.676054 0.0534937 0.345204
1428 2 0.56962 0.195132 0.353985
1420 1 0.654805 0.0810962 0.356426
1419 2 0.670157 0.0187349 0.284363
1427 2 0.608179 0.149113 0.343511
1426 1 0.572201 0.155755 0.352505
1425 2 0.528291 0.179686 0.30511
1422 2 0.669141 0.11541 0.34837
2385 3 0.566789 0.0241724 0.406531
1938 2 0.719823 0.177724 0.448149
1920 2 0.732348 0.11009 0.402318
1918 1 0.739158 0.0713943 0.399666
1562 2 0.695291 0.239404 0.443684
1561 1 0.657734 0.236647 0.450912
1455 2 0.608535 0.160803 0.438413
1439 2 0.612683 0.012908 0.447724
1454 2 0.567285 0.162186 0.466593
1441 1 0.502054 0.0824393 0.440411
1453 1 0.57418 0.177011 0.444994
1443 2 0.501811 0.0527183 0.456056
1451 2 0.514723 0.137941 0.399574
1450 1 0.503415 0.173304 0.391416
1446 2 0.643215 0.0185912 0.39273
1447 1 0.654981 0.0722053 0.450107
1448 2 0.694044 0.0663147 0.451086
1449 2 0.650975 0.11148 0.448807
1558 1 0.51012 0.23916 0.453817
1485 2 0.640192 0.148506 0.497948
1484 2 0.695396 0.176993 0.493696
1479 2 0.523934 0.157624 0.488184
1500 2 0.669943 0.193897 0.589779
1499 2 0.656397 0.13619 0.601715
1498 1 0.67366 0.169912 0.608506
2386 3 0.698112 0.172229 0.557843
1496 2 0.522232 0.143569 0.602298
2092 1 0.735068 0.249218 0.603641
1493 2 0.652735 0.00939789 0.616541
1466 2 0.560836 0.0193578 0.557626
1492 1 0.672387 0.013628 0.596113
1491 2 0.559616 0.10505 0.601726
1972 1 0.739567 0.0710435 0.600435
1490 2 0.59851 0.0565974 0.605918
1489 1 0.591874 0.0883523 0.592357
1472 2 0.666835 0.0236372 0.513196
1483 1 0.664412 0.1745 0.508356
1474 1 0.673359 0.0809105 0.54131
1475 2 0.686946 0.069146 0.56244
1476 2 0.639695 0.0999435 0.546249
1482 2 0.558179 0.160389 0.538454
1481 2 0.614536 0.163477 0.554596
1480 1 0.577285 0.176135 0.55695
1974 2 0.731583 0.109719 0.601594
1587 2 0.522985 0.242198 0.537226
1588 1 0.658741 0.235944 0.549897
1610 2 0.607875 0.24919 0.612578
1609 1 0.574955 0.236556 0.601847
1948 1 0.734417 0.00255331 0.551995
2001 2 0.723277 0.0869385 0.710654
1527 2 0.641893 0.18724 0.698601
1994 2 0.746779 0.198715 0.64866
1504 1 0.50732 0.0767277 0.642335
1505 2 0.506553 0.0631869 0.664618
1526 2 0.698342 0.16067 0.701065
1507 1 0.681623 0.089204 0.649099
1508 2 0.665554 0.0716885 0.668056
1509 2 0.652823 0.0891075 0.632845
1510 1 0.570083 0.163924 0.655276
1511 2 0.594075 0.137235 0.64532
1512 2 0.585841 0.19884 0.649404
1525 1 0.659765 0.15209 0.700333
1523 2 0.508461 0.184899 0.71516
1522 1 0.513977 0.161019 0.696545
1516 1 0.583684 0.0689385 0.704371
1517 2 0.577368 0.0765462 0.681402
1518 2 0.588949 0.104515 0.714227
1993 1 0.738702 0.162208 0.656375
1637 2 0.599723 0.235008 0.685941
1622 2 0.525181 0.242562 0.661273
1636 1 0.591731 0.246886 0.708054
231 5 0.5 0 0.8
232 5 0.583333 0.0833333 0.8
233 5 0.583333 0 0.85
234 5 0.5 0.0833333 0.85
235 5 0.666667 0 0.8
236 5 0.666667 0.0833333 0.85
237 5 0.5 0.166667 0.8
238 5 0.583333 0.166667 0.85
239 5 0.666667 0.166667 0.8
240 5 0.5 0 0.9
241 5 0.583333 0.0833333 0.9
242 5 0.666667 0 0.9
243 5 0.5 0.166667 0.9
244 5 0.666667 0.166667 0.9
245 5 0.583333 0.25 0.1
246 5 0.5 0.333333 0.1
247 5 0.583333 0.416667 0.1
248 5 0.666667 0.333333 0.1
249 5 0.5 0.25 0.15
250 5 0.666667 0.25 0.15
251 5 0.583333 0.333333 0.15
252 5 0.5 0.416667 0.15
253 5 0.666667 0.416667 0.15
254 5 0.583333 0.25 0.2
255 5 0.5 0.333333 0.2
256 5 0.583333 0.416667 0.2
257 5 0.666667 0.333333 0.2
1528 1 0.597778 0.251351 0.29576
2137 1 0.740368 0.48707 0.350405
1530 2 0.58971 0.250925 0.318982
2024 2 0.717782 0.335352 0.349633
2021 2 0.745786 0.387416 0.307802
2020 1 0.735821 0.420093 0.295859
2013 2 0.718487 0.256541 0.29846
1535 2 0.646033 0.274384 0.34718
1661 2 0.663994 0.468 0.297986
1655 2 0.611278 0.48402 0.351488
1538 2 0.510751 0.30896 0.289055
1539 2 0.505286 0.358136 0.311989
1654 1 0.572227 0.488439 0.348891
1547 2 0.508859 0.393683 0.362524
1546 1 0.512228 0.417513 0.343702
1543 1 0.569116 0.335904 0.345687
1544 2 0.581942 0.35081 0.366267
1545 2 0.598941 0.313286 0.338046