ITEM: TIMESTEP
0
ITEM: NUMBER OF ATOMS
3150
ITEM: BOX BOUNDS pp pp pp
-4.5000000000000000e+01 4.5000000000000000e+01
-1.5000000000000000e+01 1.5000000000000000e+01
-1.5000000000000000e+01 1.5000000000000000e+01
ITEM: ATOMS id type xs ys zs
268 8 0.0076728 0.0132986 0.222018
269 9 0.0134293 0.0395733 0.209616
741 9 0.0360893 0.00963516 0.0798924
1225 8 0.00888791 0.185631 0.102344
1226 9 0.00563038 0.200327 0.0732204
1227 9 0.0200925 0.183922 0.104161
1858 8 0.0608886 0.182588 0.0375471
1860 9 0.0524537 0.205195 0.0403413
2293 8 0.0713419 0.00638753 0.090614
2294 9 0.0751985 0.0347236 0.0763116
2494 8 0.000602581 0.229175 0.0284946
1859 9 0.0660089 0.184698 0.00763261
2495 9 0.00870762 0.244407 0.0107422
226 8 0.0888812 0.0573505 0.226288
227 9 0.0992791 0.0527491 0.238516
228 9 0.0888913 0.0673957 0.194049
571 8 0.142613 0.15697 0.210811
572 9 0.147296 0.164455 0.240596
573 9 0.133773 0.177321 0.204073
1618 8 0.154088 0.177209 0.0708464
1619 9 0.151672 0.194938 0.0429811
1620 9 0.163658 0.187593 0.0853665
1705 8 0.139635 0.0923811 0.147261
1706 9 0.142058 0.10751 0.1179
1707 9 0.140973 0.114353 0.173069
1744 8 0.117871 0.207773 0.193563
1745 9 0.114349 0.200903 0.162217
1746 9 0.10932 0.213197 0.214928
2791 8 0.131591 0.00818774 0.173389
2793 9 0.134439 0.0389509 0.161169
2792 9 0.135677 0.00356468 0.204562
721 8 0.226518 0.0459115 0.0888796
722 9 0.21564 0.0405235 0.0800558
723 9 0.228235 0.0354982 0.120624
733 8 0.203661 0.218818 0.109504
734 9 0.214347 0.214137 0.11894
1024 8 0.1941 0.117057 0.227007
1025 9 0.202446 0.127462 0.206916
1026 9 0.183991 0.127305 0.216322
1779 9 0.228003 0.0594577 0.0321635
2314 8 0.198627 0.0280412 0.0627979
2315 9 0.199331 0.00948306 0.034632
2316 9 0.188286 0.0406333 0.0675497
9 9 0.245764 0.0334175 0.0784021
7 8 0.256292 0.0207842 0.0786353
8 9 0.262141 0.0319669 0.105524
706 8 0.30717 0.0780819 0.141732
707 9 0.295961 0.0747557 0.141617
708 9 0.31235 0.0482607 0.139342
1462 8 0.272092 0.0347494 0.156666
1463 9 0.272119 0.000661512 0.156194
1464 9 0.271776 0.0468289 0.188268
2242 8 0.272204 0.160855 0.23619
2243 9 0.267866 0.19171 0.232009
2818 8 0.293472 0.104932 0.00779115
2819 9 0.296114 0.104566 0.0406254
2984 9 0.326108 0.00694905 0.244053
3106 8 0.324456 0.113686 0.228931
3108 9 0.318439 0.111473 0.200321
3107 9 0.330467 0.142259 0.2306
1258 8 0.387982 0.0402088 0.0208548
1259 9 0.388322 0.0125013 0.0011826
1260 9 0.387674 0.0684355 0.00209841
1467 9 0.336227 0.224812 0.229927
2866 8 0.350779 0.0933741 0.0493303
2867 9 0.36165 0.0846489 0.0508181
2868 9 0.345368 0.0880889 0.0785781
284 9 0.342361 0.110763 0.000468307
1537 8 0.418963 0.147529 0.0998896
1539 9 0.418848 0.162593 0.130377
149 9 0.464789 0.0459074 0.0455243
292 8 0.427767 0.172666 0.18578
293 9 0.435449 0.19633 0.192663
294 9 0.427668 0.147802 0.208903
1342 8 0.430642 0.05593 0.100516
1343 9 0.421563 0.0504395 0.0811855
1344 9 0.440193 0.0455471 0.0855776
1538 9 0.423717 0.116882 0.102088
1717 8 0.495973 0.0711142 0.120126
1718 9 0.499656 0.0844764 0.149138
1945 8 0.426209 0.0292392 0.189127
1946 9 0.428066 0.0411413 0.157726
1947 9 0.426842 0.0543302 0.211931
2696 9 0.490097 0.221648 0.125289
3054 9 0.487647 0.0210158 0.107957
3055 8 0.442754 0.24932 0.0378274
3057 9 0.436972 0.222371 0.0485622
148 8 0.45843 0.0185841 0.0517962
743 9 0.571849 0.0133998 0.23788
1719 9 0.50249 0.0785143 0.0930089
2431 8 0.562134 0.145692 0.0588982
2432 9 0.566534 0.162722 0.0330775
2433 9 0.567371 0.148821 0.0884221
2833 8 0.515012 0.0862209 0.045906
2834 9 0.521028 0.0615366 0.0314707
2835 9 0.521453 0.112196 0.0564312
2836 8 0.539818 0.227585 0.0432845
2837 9 0.535312 0.200507 0.058513
2838 9 0.549799 0.22036 0.0294716
2944 8 0.575189 0.151324 0.139279
2945 9 0.575178 0.174912 0.163689
2992 8 0.572323 0.219162 0.199598
2993 9 0.572315 0.226847 0.232852
3058 8 0.533571 0.143216 0.0888594
3059 9 0.533238 0.147488 0.121883
3060 9 0.543796 0.145445 0.0738965
2994 9 0.565351 0.239221 0.182334
2946 9 0.584546 0.132237 0.13962
124 8 0.658962 0.223791 0.0545355
307 8 0.65152 0.107147 0.00966978
308 9 0.654127 0.138765 0.0184469
309 9 0.652468 0.0854743 0.0358214
1006 8 0.637811 0.223955 0.118664
1008 9 0.645401 0.219267 0.0935978
1216 8 0.649465 0.211357 0.208924
1217 9 0.653909 0.24223 0.20368
1218 9 0.6455 0.19852 0.179898
1828 8 0.648113 0.037089 0.0699483
1829 9 0.63919 0.0334781 0.0494501
1830 9 0.645587 0.0294867 0.102259
2176 8 0.611229 0.22079 0.0731881
2178 9 0.621161 0.218122 0.0894446
2794 8 0.599454 0.0971335 0.12522
2795 9 0.610201 0.0938499 0.134624
2796 9 0.598738 0.112121 0.0945563
2857 8 0.643208 0.0152687 0.157105
2859 9 0.649513 0.0335765 0.178414
2959 8 0.59968 0.140843 0.0469229
2960 9 0.603804 0.171811 0.0539285
2961 9 0.600525 0.133082 0.0141047
2177 9 0.604309 0.241777 0.0895858
125 9 0.669007 0.217377 0.0692055
379 8 0.6796 0.0582902 0.221278
380 9 0.68114 0.0854933 0.201924
730 8 0.725026 0.00981401 0.241052
731 9 0.732277 0.0224718 0.218177
732 9 0.714385 0.0186708 0.234272
805 8 0.741156 0.248871 0.117673
1261 8 0.716062 0.220786 0.0659317
1262 9 0.724813 0.217904 0.0873833
2101 8 0.686305 0.221101 0.0942046
2102 9 0.696152 0.207978 0.0834691
2140 8 0.739722 0.130003 0.122577
2141 9 0.733152 0.104211 0.132102
2142 9 0.739889 0.154614 0.145812
2755 8 0.746168 0.0513791 0.188224
2103 9 0.688575 0.249784 0.111439
2757 9 0.752679 0.0635832 0.163379
496 8 0.76286 0.117068 0.0633799
497 9 0.762749 0.129596 0.0317852
498 9 0.753357 0.122684 0.0809718
1354 8 0.82466 0.161003 0.194831
1356 9 0.832305 0.18242 0.207933
1699 8 0.782183 0.234176 0.125994
1700 9 0.775243 0.212711 0.110378
1753 8 0.808962 0.187924 0.118678
1754 9 0.800198 0.208328 0.125184
1755 9 0.814658 0.180164 0.146905
1843 8 0.788238 0.0839663 0.0962399
1844 9 0.790529 0.0996265 0.12526
1845 9 0.77807 0.0918026 0.0838943
2152 8 0.807491 0.130375 0.048008
2153 9 0.811341 0.154078 0.0690307
2154 9 0.802053 0.104314 0.062081
2756 9 0.752054 0.0478948 0.217257
436 8 0.832758 0.0724071 0.229808
1355 9 0.826179 0.129476 0.206638
403 8 0.860384 0.0885098 0.19767
404 9 0.866581 0.0603545 0.199158
405 9 0.866075 0.114846 0.210362
438 9 0.842616 0.0790869 0.214257
1696 8 0.912112 0.0232141 0.0915901
1697 9 0.903884 0.028488 0.0690299
1698 9 0.914142 0.0511096 0.110091
2264 9 0.910261 0.1869 0.230524
2410 8 0.874199 0.231417 0.203086
2411 9 0.872747 0.199289 0.212882
2412 9 0.88439 0.241877 0.213324
2521 8 0.876617 0.150652 0.246467
3079 8 0.915323 0.137854 0.0741392
2458 8 0.844013 0.226817 0.228072
2522 9 0.886747 0.165699 0.249937
2459 9 0.854994 0.231477 0.220994
1978 8 0.994519 0.160524 0.21955
736 8 0.920923 0.0894526 0.150566
738 9 0.92128 0.118441 0.168516
3080 9 0.9218 0.124735 0.0497669
3081 9 0.916702 0.121622 0.10371
11 9 0.919838 0.181692 0.0254367
305 9 0.990538 0.0225455 0.246777
306 9 0.974485 0.0441777 0.229595
737 9 0.92672 0.0652775 0.166596
847 8 0.925423 0.168771 0.195322
848 9 0.934166 0.171341 0.216986
849 9 0.926239 0.191989 0.170901
1312 8 0.976172 0.0969045 0.0290675
1313 9 0.966438 0.112427 0.0209915
1314 9 0.983665 0.118755 0.0415022
1963 8 0.982547 0.199476 0.142791
1964 9 0.993117 0.197225 0.129928
1965 9 0.975306 0.181235 0.124653
1979 9 0.989607 0.174445 0.192257
1980 9 0.998159 0.183887 0.241288
2496 9 0.991544 0.24943 0.0330225
2936 9 0.930887 0.0356728 0.0301925
472 8 0.949501 0.182557 0.247739
474 9 0.953636 0.213763 0.244666
2935 8 0.940354 0.0328119 0.0122499
475 8 0.072605 0.325381 0.177611
476 9 0.0728785 0.315354 0.145354
477 9 0.0671312 0.303566 0.197581
922 8 0.0689808 0.413115 0.19803
923 9 0.0705318 0.380161 0.190812
924 9 0.0779283 0.431762 0.189748
1132 8 0.0547994 0.362487 0.0226142
1134 9 0.0612262 0.38842 0.03243
1492 8 0.0217022 0.362751 0.235458
1493 9 0.0304585 0.363058 0.214183
2235 9 0.00431077 0.338456 0.215741
2287 8 0.0270271 0.33414 0.0398041
2288 9 0.0375198 0.346478 0.0353066
2289 9 0.02169 0.349761 0.0650576
2821 8 0.0401603 0.250755 0.0287945
2822 9 0.0459943 0.262478 0.00242362
2823 9 0.0335884 0.275228 0.041679
14 9 0.0823785 0.485618 0.00864871
136 8 0.113129 0.366353 0.0791416
137 9 0.11785 0.351117 0.105985
138 9 0.115018 0.39985 0.0793048
1426 8 0.123386 0.325023 0.156197
1427 9 0.131212 0.32796 0.180237
1428 9 0.116269 0.29959 0.162106
2210 9 0.122999 0.491836 0.228996
3037 8 0.119895 0.456071 0.0751401
3038 9 0.12809 0.454189 0.0520502
3039 9 0.119156 0.486759 0.089082
735 9 0.200174 0.250456 0.115452
820 8 0.192694 0.326794 0.12822
821 9 0.183057 0.318992 0.112706
822 9 0.195216 0.359786 0.12325
1110 9 0.222249 0.475235 0.0152315
1234 8 0.186697 0.471525 0.0191586
1235 9 0.196627 0.456434 0.024939
1236 9 0.184911 0.497252 0.0408955
1417 8 0.224851 0.424746 0.163723
1418 9 0.236064 0.423355 0.167976
1419 9 0.219634 0.418924 0.193227
1540 8 0.208141 0.345834 0.206772
1541 9 0.218839 0.345213 0.196409
1542 9 0.201066 0.33644 0.181982
1930 8 0.198602 0.414329 0.117632
1931 9 0.209099 0.419162 0.129659
1932 9 0.192034 0.441302 0.123124
1108 8 0.217686 0.445952 0.00509022
2493 9 0.251963 0.311535 0.138192
973 8 0.250599 0.406184 0.220635
975 9 0.261743 0.408193 0.21686
1528 8 0.298477 0.391957 0.243166
1530 9 0.296972 0.419823 0.224699
2187 9 0.333038 0.447758 0.0313845
2491 8 0.253266 0.278987 0.130208
2492 9 0.26352 0.272062 0.118195
2744 9 0.320326 0.48485 0.0911744
2185 8 0.332135 0.44683 0.0652815
1387 8 0.40031 0.25103 0.175362
1389 9 0.410658 0.256675 0.16347
217 8 0.349142 0.361748 0.231245
218 9 0.344385 0.361841 0.200651
219 9 0.350407 0.392893 0.243809
595 8 0.387648 0.475007 0.0398539
596 9 0.39186 0.446869 0.0257414
597 9 0.393571 0.482699 0.0678994
1388 9 0.393511 0.277434 0.170364
1939 8 0.405979 0.485297 0.112211
1940 9 0.404711 0.47053 0.142356
2157 9 0.415463 0.34475 0.199566
2186 9 0.340938 0.430931 0.0787509
2359 8 0.40123 0.335943 0.0611996
2360 9 0.408372 0.339568 0.0871449
2361 9 0.398592 0.303526 0.0556496
2954 9 0.398364 0.375273 0.0208711
2352 9 0.405086 0.250924 0.237202
352 8 0.493458 0.460418 0.207028
353 9 0.489633 0.439225 0.230692
880 8 0.437685 0.2726 0.233829
881 9 0.427471 0.270593 0.24849
2155 8 0.420986 0.326137 0.176801
2156 9 0.429168 0.307998 0.191807
2695 8 0.487051 0.252838 0.134317
2697 9 0.495541 0.270821 0.147081
3056 9 0.45156 0.256215 0.0576633
354 9 0.499759 0.444797 0.183716
1631 9 0.569543 0.384521 0.24732
1825 8 0.537377 0.47148 0.121721
1826 9 0.548229 0.481705 0.123216
1827 9 0.530405 0.49575 0.132005
2779 8 0.515302 0.408607 0.129375
2780 9 0.524303 0.42928 0.126682
2781 9 0.515596 0.384456 0.106
1224 9 0.583083 0.450811 0.109673
126 9 0.658955 0.255245 0.0416887
655 8 0.663987 0.408314 0.0330767
657 9 0.657881 0.43592 0.0409448
874 8 0.610039 0.432379 0.0260367
875 9 0.603433 0.433678 0.053872
876 9 0.615571 0.461372 0.0208612
1007 9 0.639531 0.253531 0.134222
1222 8 0.591595 0.431542 0.0986731
1223 9 0.592931 0.403861 0.117716
2569 8 0.659252 0.296165 0.205954
2571 9 0.653432 0.303314 0.23424
2989 8 0.652513 0.495682 0.0464872
1774 8 0.664368 0.314509 0.0379914
1776 9 0.662093 0.347789 0.0343974
807 9 0.744778 0.267434 0.091469
1263 9 0.714886 0.252963 0.0559527
656 9 0.673451 0.417127 0.0171016
806 9 0.747623 0.254525 0.14476
854 9 0.694066 0.493085 0.137574
855 9 0.701304 0.472483 0.0900365
1117 8 0.697403 0.298124 0.127486
1118 9 0.708506 0.30362 0.126593
1119 9 0.691561 0.325393 0.138152
1651 8 0.747786 0.309476 0.0488641
1653 9 0.73643 0.309457 0.0448093
1758 9 0.696088 0.321366 0.249852
1775 9 0.673958 0.309857 0.0548666
2005 8 0.718911 0.309109 0.0220999
2007 9 0.716683 0.341987 0.0164067
2570 9 0.670123 0.30456 0.210386
2638 8 0.680966 0.365711 0.160249
2639 9 0.669991 0.364434 0.152571
2640 9 0.682697 0.359082 0.193232
2655 9 0.713769 0.429575 0.0038047
3139 8 0.707006 0.482827 0.00625314
1756 8 0.685845 0.33415 0.244237
1652 9 0.753565 0.319277 0.0207797
1701 9 0.778241 0.26618 0.124812
1906 8 0.771617 0.484023 0.200677
1907 9 0.776939 0.455371 0.192429
2845 8 0.76922 0.316261 0.113889
2846 9 0.761266 0.316667 0.089639
2847 9 0.774352 0.346058 0.116806
2854 8 0.827131 0.372837 0.163531
2856 9 0.817874 0.391196 0.169278
1908 9 0.766829 0.498142 0.1731
1742 9 0.803481 0.478513 0.229993
1743 9 0.786028 0.478815 0.247351
1600 8 0.860905 0.277127 0.130919
1601 9 0.867181 0.262159 0.15487
998 9 0.870441 0.384196 0.0249557
1602 9 0.850917 0.26198 0.128108
2107 8 0.859967 0.359732 0.0680589
2108 9 0.860749 0.334049 0.0901705
2109 9 0.849388 0.364393 0.0572561
2855 9 0.833849 0.386695 0.140327
3130 8 0.916005 0.316157 0.199645
3132 9 0.906384 0.320819 0.182955
1215 9 0.858401 0.496847 0.110645
2460 9 0.838332 0.255956 0.22802
3131 9 0.924726 0.310898 0.178457
28 8 0.961445 0.491568 0.191516
29 9 0.964119 0.489855 0.224272
289 8 0.932596 0.450756 0.189862
290 9 0.942859 0.465741 0.1882
291 9 0.933287 0.418771 0.199744
1249 8 0.977359 0.286608 0.0436946
1250 9 0.974664 0.2881 0.0763828
1251 9 0.973809 0.314355 0.0272076
2143 8 0.939104 0.30172 0.143228
2144 9 0.950185 0.296949 0.148744
2145 9 0.937094 0.309814 0.111035
2233 8 0.994171 0.324751 0.209282
2234 9 0.988707 0.318191 0.238259
2434 8 0.966276 0.366121 0.00956109
2435 9 0.972371 0.393792 0.00155469
2436 9 0.955265 0.37201 0.00533557
3013 8 0.971376 0.286062 0.144098
3014 9 0.975253 0.253926 0.144081
3015 9 0.978317 0.305525 0.162361
30 9 0.970666 0.492907 0.172105
1065 9 0.976178 0.474746 0.000987789
31 8 0.0457019 0.617088 0.221827
32 9 0.054041 0.599255 0.207772
33 9 0.0498291 0.640876 0.242825
295 8 0.0460646 0.672502 0.0565148
296 9 0.0553731 0.664916 0.0744966
297 9 0.0487434 0.690745 0.0292791
1561 8 0.0743903 0.658288 0.0896744
1562 9 0.0804385 0.664082 0.11752
1692 9 0.0149982 0.654474 0.0395732
2035 8 0.0201485 0.584643 0.17493
2036 9 0.0217817 0.599495 0.145016
2037 9 0.0281325 0.593932 0.197287
1563 9 0.0809094 0.651515 0.0628272
1690 8 0.00644485 0.639155 0.023658
15 9 0.0655453 0.510485 0.00772171
1416 9 0.0126613 0.587493 0.00405043
676 8 0.111266 0.590497 0.209717
677 9 0.116366 0.566589 0.228324
678 9 0.115292 0.621391 0.215812
448 8 0.246885 0.681829 0.207456
450 9 0.245746 0.678082 0.174009
836 9 0.230998 0.598199 0.246257
1155 9 0.196337 0.665642 0.238374
2113 8 0.173896 0.628328 0.0891195
2114 9 0.170673 0.637693 0.120114
2115 9 0.170497 0.650123 0.0654017
2128 8 0.236653 0.531633 0.0441726
2129 9 0.238112 0.53811 0.0769916
2130 9 0.233505 0.559446 0.0269299
2488 8 0.187169 0.547052 0.0712105
2489 9 0.197685 0.555974 0.0632238
2490 9 0.180969 0.574647 0.0783631
1445 9 0.211738 0.743566 0.0936671
2743 8 0.313488 0.510541 0.0997808
43 8 0.259625 0.686678 0.114838
44 9 0.255704 0.714012 0.0987152
45 9 0.265326 0.666787 0.0926657
187 8 0.322604 0.538112 0.242992
189 9 0.322849 0.541282 0.209309
449 9 0.257655 0.687123 0.215364
748 8 0.27477 0.63879 0.0477399
749 9 0.285745 0.644093 0.0431462
750 9 0.270915 0.613959 0.0278678
2745 9 0.3086 0.523091 0.071748
310 8 0.305518 0.530409 0.0120018
527 9 0.254534 0.542405 0.012023
1941 9 0.415181 0.504676 0.110472
22 8 0.405532 0.749018 0.0648202
23 9 0.396694 0.735724 0.0810663
241 8 0.351796 0.687047 0.0172263
243 9 0.356508 0.692458 0.0473655
762 9 0.361344 0.617784 0.229982
1432 8 0.411087 0.659158 0.0991539
1434 9 0.412886 0.688544 0.0830377
1966 8 0.374819 0.527609 0.229136
1967 9 0.385692 0.527699 0.237996
1968 9 0.372338 0.555227 0.210879
2326 8 0.387753 0.670828 0.155559
2327 9 0.396827 0.66366 0.136238
2328 9 0.385432 0.704184 0.155969
2533 8 0.406857 0.562894 0.222384
2535 9 0.402585 0.579296 0.195729
2767 8 0.369664 0.604883 0.180648
2768 9 0.376727 0.630872 0.173702
2769 9 0.364631 0.594339 0.152365
85 8 0.498849 0.717179 0.135993
86 9 0.495955 0.68511 0.129827
1433 9 0.419714 0.637676 0.0939414
2296 8 0.436775 0.547218 0.213844
2297 9 0.441974 0.517665 0.218542
2298 9 0.44208 0.572069 0.230759
2509 8 0.436039 0.607401 0.0847563
2510 9 0.442953 0.604575 0.111292
2511 9 0.441629 0.607305 0.0554095
2534 9 0.417715 0.554055 0.217513
2827 8 0.487034 0.607844 0.0469412
2828 9 0.490496 0.609595 0.0146527
2829 9 0.485531 0.576047 0.0571347
384 9 0.483275 0.744048 0.105415
546 9 0.569438 0.531913 0.106218
87 9 0.504085 0.71976 0.166237
94 8 0.51291 0.719089 0.216256
95 9 0.52238 0.703647 0.225819
96 9 0.50796 0.734693 0.242649
229 8 0.572749 0.637581 0.210738
230 9 0.576306 0.643837 0.242538
231 9 0.569346 0.66558 0.195019
544 8 0.565208 0.510779 0.129568
545 9 0.568003 0.522272 0.160508
2527 8 0.578962 0.56609 0.0669489
2529 9 0.57263 0.583144 0.0447056
2671 8 0.571749 0.737538 0.0854161
2673 9 0.572785 0.718517 0.0574216
2728 8 0.576152 0.547036 0.206491
2730 9 0.574466 0.580724 0.209083
2968 8 0.525063 0.727466 0.00355279
2969 9 0.529209 0.698022 0.0146084
2615 9 0.510361 0.749636 0.101046
1057 8 0.575847 0.694157 0.00597615
2970 9 0.522031 0.747188 0.0300319
2990 9 0.661638 0.515288 0.0434617
2729 9 0.585851 0.537501 0.221582
640 8 0.604004 0.639782 0.0861459
641 9 0.607208 0.67013 0.0747175
642 9 0.592773 0.636898 0.0875776
1102 8 0.603718 0.522522 0.235503
1104 9 0.608845 0.532668 0.207057
1297 8 0.622714 0.567043 0.0664525
1298 9 0.620547 0.550637 0.09542
1299 9 0.61712 0.596563 0.066659
1484 9 0.62781 0.748837 0.159773
1885 8 0.666319 0.65313 0.141872
1887 9 0.662082 0.644525 0.172304
2485 8 0.606041 0.560649 0.148779
2486 9 0.60713 0.592661 0.137784
2487 9 0.595212 0.552701 0.153823
2528 9 0.58863 0.555027 0.0534138
2991 9 0.6433 0.514128 0.0529084
3135 9 0.646521 0.66662 0.222599
3133 8 0.655286 0.64596 0.226941
1599 9 0.633326 0.601763 0.00077329
853 8 0.698317 0.500258 0.107015
3140 9 0.70149 0.506983 0.023531
724 8 0.715838 0.666732 0.0923277
725 9 0.712912 0.670506 0.12463
726 9 0.726659 0.673932 0.0865991
1372 8 0.694223 0.736091 0.195259
1374 9 0.692414 0.747489 0.226774
1886 9 0.675749 0.671187 0.145341
1935 9 0.679077 0.727176 0.0103694
2071 8 0.691038 0.555706 0.0387804
2072 9 0.693516 0.544264 0.0699071
2073 9 0.692859 0.588908 0.0357317
1934 9 0.694239 0.746313 0.03669
274 8 0.828947 0.6915 0.206127
275 9 0.832534 0.680698 0.236468
276 9 0.81775 0.687159 0.204579
355 8 0.831154 0.566414 0.177677
357 9 0.827537 0.591156 0.198003
427 8 0.757615 0.618155 0.237515
428 9 0.765235 0.60339 0.217558
429 9 0.756611 0.651271 0.232069
568 8 0.81167 0.730179 0.0104681
569 9 0.822461 0.726715 0.0194448
613 8 0.785447 0.709461 0.048992
614 9 0.795644 0.71583 0.0350875
615 9 0.777204 0.724774 0.0318645
904 8 0.795599 0.651963 0.112077
905 9 0.80115 0.628198 0.0943922
906 9 0.790789 0.673963 0.090622
1300 8 0.799152 0.674562 0.196996
1301 9 0.797672 0.665878 0.164242
1302 9 0.792753 0.657013 0.218409
2188 8 0.810432 0.58886 0.0625436
2189 9 0.808125 0.571023 0.0346589
2190 9 0.820389 0.580496 0.0760651
2824 8 0.760909 0.515347 0.121397
2825 9 0.750096 0.524109 0.117309
2826 9 0.766652 0.515861 0.0921974
2914 8 0.808951 0.503474 0.177434
2915 9 0.818135 0.523514 0.177794
2916 9 0.800469 0.517481 0.160196
1359 9 0.832263 0.740402 0.176007
2385 9 0.888081 0.516305 0.109148
301 8 0.859627 0.591815 0.161144
302 9 0.86773 0.596966 0.183962
303 9 0.856201 0.62064 0.146082
356 9 0.842103 0.571308 0.170042
889 8 0.893866 0.711788 0.236643
890 9 0.899309 0.693751 0.213196
1213 8 0.866734 0.519591 0.109223
1214 9 0.863873 0.547353 0.126313
1959 9 0.891555 0.62851 0.014093
2383 8 0.899296 0.521517 0.110586
2384 9 0.904208 0.501896 0.133907
2416 8 0.904575 0.612374 0.113293
2417 9 0.902701 0.579012 0.115934
2418 9 0.904531 0.62246 0.0809687
2506 8 0.849689 0.668965 0.127882
2507 9 0.841996 0.682332 0.148984
2508 9 0.854671 0.692623 0.108897
2887 8 0.912099 0.541014 0.0209201
2888 9 0.908855 0.528896 0.0510408
635 9 0.846096 0.519762 0.000638395
1957 8 0.902775 0.629049 0.0177052
1958 9 0.90713 0.655235 0.000102685
2889 9 0.909511 0.573988 0.0179815
166 8 0.951654 0.707506 0.0502502
167 9 0.951703 0.739619 0.061486
168 9 0.942861 0.690585 0.0623849
607 8 0.959228 0.589006 0.160083
608 9 0.952221 0.601178 0.136615
609 9 0.956282 0.55765 0.169612
778 8 0.967281 0.636931 0.241488
780 9 0.970282 0.669293 0.238557
1691 9 0.997802 0.660265 0.0181393
2014 8 0.987233 0.536476 0.143305
2015 9 0.997923 0.542403 0.152436
2016 9 0.980616 0.563187 0.149604
3073 8 0.97559 0.52365 0.0307976
3074 9 0.978604 0.523083 0.0635262
3075 9 0.975141 0.555121 0.0186233
779 9 0.96439 0.6232 0.211824
2606 9 0.960033 0.690165 0.00261765
270 9 0.0123658 0.983509 0.214423
739 8 0.0425857 0.984591 0.0685437
740 9 0.0533805 0.988596 0.0781907
1441 8 0.00379688 0.812494 0.139516
1442 9 0.0113155 0.789569 0.129231
2312 9 0.0760349 0.85935 0.0036996
2295 9 0.079057 0.981739 0.0909168
2311 8 0.0753505 0.889314 0.0189819
2313 9 0.0671188 0.90793 0.00462778
130 8 0.148824 0.757592 0.11382
131 9 0.151354 0.761848 0.146392
132 9 0.137913 0.765228 0.107862
175 8 0.121134 0.790146 0.0973423
176 9 0.111744 0.805818 0.107449
177 9 0.124371 0.80353 0.0676358
184 8 0.112197 0.957222 0.124835
185 9 0.11894 0.974431 0.146255
186 9 0.1148 0.965795 0.0931518
346 8 0.152946 0.876207 0.069213
347 9 0.160288 0.850424 0.0659922
348 9 0.157015 0.900925 0.0886052
763 8 0.103298 0.87909 0.0762885
764 9 0.105584 0.903503 0.09894
765 9 0.0931171 0.882679 0.0617969
1438 8 0.0928729 0.916961 0.217905
1439 9 0.0842556 0.938714 0.216317
1440 9 0.100571 0.923622 0.193993
2425 8 0.128557 0.843421 0.026935
2426 9 0.119152 0.858637 0.0381901
2427 9 0.137691 0.857262 0.0418613
2602 8 0.165158 0.794354 0.0471265
2604 9 0.15945 0.793375 0.0179465
2603 9 0.160095 0.776502 0.0716219
1444 8 0.216993 0.760388 0.118273
1446 9 0.210313 0.783764 0.132925
1051 8 0.237581 0.820016 0.148687
1052 9 0.245803 0.809214 0.168911
1053 9 0.232462 0.794621 0.132144
2167 8 0.212927 0.770773 0.249021
2169 9 0.21048 0.77121 0.216013
2896 8 0.208835 0.830723 0.17143
2897 9 0.219156 0.837096 0.159212
2898 9 0.207203 0.84705 0.200669
146 9 0.200281 0.963125 0.24287
1 8 0.309063 0.832368 0.225584
2 9 0.301737 0.807015 0.227554
333 9 0.264108 0.882652 0.0149018
1924 8 0.26644 0.9432 0.0482122
1925 9 0.271992 0.946139 0.019216
1926 9 0.261929 0.97305 0.0579541
2770 8 0.271286 0.942039 0.144401
2771 9 0.265545 0.917096 0.159602
2772 9 0.270078 0.94016 0.11069
3085 8 0.318643 0.941383 0.0640463
3086 9 0.323697 0.912319 0.0723601
3087 9 0.308683 0.936338 0.0491605
3103 8 0.292448 0.910543 0.219085
3104 9 0.291438 0.93094 0.246157
3105 9 0.288412 0.925631 0.191269
3 9 0.303845 0.862592 0.223604
24 9 0.406836 0.781599 0.0741179
321 9 0.3387 0.786209 0.245435
349 8 0.3376 0.970434 0.214881
350 9 0.341167 0.969632 0.182872
351 9 0.336165 0.939454 0.227715
547 8 0.346641 0.845597 0.0215507
549 9 0.340025 0.820165 0.0115598
1351 8 0.369754 0.819909 0.0865865
1352 9 0.378042 0.828454 0.0652718
1353 9 0.359662 0.828248 0.073582
1369 8 0.405449 0.835952 0.0929347
1370 9 0.414469 0.856273 0.0898824
1371 9 0.397925 0.847952 0.114956
2773 8 0.382378 0.762149 0.149199
2774 9 0.376862 0.782713 0.127568
2775 9 0.383191 0.776592 0.17979
2461 8 0.38826 0.822863 0.241526
2463 9 0.398768 0.832316 0.249187
150 9 0.464548 0.996807 0.070519
382 8 0.474284 0.761565 0.0946212
383 9 0.470901 0.783531 0.118282
586 8 0.431968 0.885238 0.0794846
587 9 0.437532 0.857096 0.0700089
588 9 0.433593 0.909639 0.0566641
631 8 0.469908 0.834437 0.152152
632 9 0.481002 0.840604 0.153027
633 9 0.464508 0.855801 0.131554
961 8 0.424982 0.934954 0.165902
962 9 0.425599 0.968071 0.17328
963 9 0.428768 0.928099 0.134695
1171 8 0.424513 0.851209 0.199205
1172 9 0.424764 0.883497 0.188157
1173 9 0.420431 0.830172 0.175672
1399 8 0.453656 0.852022 0.232136
1400 9 0.45999 0.841283 0.206099
1401 9 0.442633 0.850215 0.22423
1813 8 0.446425 0.813319 0.043745
1814 9 0.440209 0.800294 0.0184048
1815 9 0.454846 0.79282 0.052725
3052 8 0.485264 0.989637 0.0970759
3053 9 0.494514 0.970771 0.0990585
2731 8 0.491961 0.968442 0.244388
2250 9 0.420392 0.760278 0.0109274
521 9 0.554589 0.75092 0.108239
520 8 0.545204 0.762802 0.123396
522 9 0.547496 0.776946 0.153237
1021 8 0.513314 0.95617 0.134297
1022 9 0.523852 0.958445 0.146195
1023 9 0.505729 0.960613 0.159128
1270 8 0.563914 0.882966 0.0387218
1271 9 0.559639 0.901797 0.0139857
1272 9 0.562896 0.898106 0.0690099
1594 8 0.569013 0.936745 0.113286
1595 9 0.568235 0.968913 0.12322
1596 9 0.579631 0.928414 0.105128
2581 8 0.519622 0.933753 0.0445636
2582 9 0.51821 0.945071 0.0762767
2583 9 0.516008 0.902024 0.0416401
2614 8 0.51813 0.765557 0.0821339
2616 9 0.528113 0.767006 0.0983207
2672 9 0.577001 0.767164 0.0817526
1575 9 0.571247 0.85919 0.246461
4 8 0.602725 0.95085 0.0921577
5 9 0.60672 0.942341 0.0616981
6 9 0.602517 0.98447 0.0959529
163 8 0.607544 0.821173 0.227086
164 9 0.61055 0.848045 0.208357
165 9 0.596341 0.820136 0.230421
925 8 0.611214 0.888275 0.159984
926 9 0.616553 0.864917 0.141734
927 9 0.607642 0.914028 0.140461
945 9 0.643958 0.76192 0.21754
1483 8 0.637691 0.764615 0.163994
1485 9 0.643787 0.765326 0.135618
2858 9 0.642227 0.983169 0.167155
943 8 0.648259 0.76017 0.249145
1161 9 0.65788 0.987275 0.0232463
1933 8 0.687009 0.751168 0.0111918
1174 8 0.716301 0.793107 0.166601
1175 9 0.717769 0.812347 0.19406
1176 9 0.721411 0.805902 0.139359
1373 9 0.702297 0.754466 0.180062
1358 9 0.823509 0.760728 0.130912
1210 8 0.788066 0.917746 0.0842006
1211 9 0.788468 0.94391 0.105536
1212 9 0.797275 0.916484 0.0642812
1357 8 0.83268 0.763009 0.150406
2029 8 0.813091 0.921808 0.0311955
2030 9 0.822794 0.911949 0.04582
2031 9 0.814483 0.950732 0.0143381
2050 8 0.765622 0.867271 0.0449109
2051 9 0.77191 0.893908 0.0546991
2052 9 0.766085 0.843043 0.0684568
2317 8 0.81227 0.855692 0.226037
2318 9 0.82056 0.834005 0.21858
2319 9 0.805923 0.863622 0.199247
2940 9 0.761998 0.799748 0.241944
52 8 0.866065 0.91948 0.135073
53 9 0.863701 0.886906 0.142202
54 9 0.86103 0.929369 0.106479
64 8 0.880852 0.794264 0.231703
65 9 0.885088 0.762623 0.230673
658 8 0.857668 0.908819 0.241173
659 9 0.866987 0.924741 0.230697
660 9 0.848503 0.925259 0.230332
1345 8 0.910569 0.971649 0.168926
1346 9 0.909702 0.991263 0.141277
1347 9 0.916419 0.943546 0.162181
1495 8 0.858152 0.830038 0.150972
1496 9 0.849895 0.806862 0.150442
1497 9 0.865336 0.823347 0.176172
2080 8 0.838437 0.89754 0.0775516
2081 9 0.835201 0.904167 0.109256
2082 9 0.844154 0.868424 0.0752669
2599 8 0.881262 0.963103 0.200203
2600 9 0.892393 0.965917 0.195078
2601 9 0.87553 0.946389 0.176143
669 9 0.875027 0.991459 0.246588
66 9 0.887853 0.815029 0.248023
530 9 0.994059 0.880996 0.076421
114 9 0.989951 0.822228 0.022207
179 9 0.957985 0.881068 0.227229
180 9 0.94427 0.914321 0.245796
529 8 0.987739 0.853624 0.070911
531 9 0.976664 0.861149 0.0715192
928 8 0.938238 0.96715 0.0898098
929 9 0.944831 0.980472 0.0658538
930 9 0.928345 0.983543 0.0909293
940 8 0.934395 0.962607 0.234001
942 9 0.925559 0.973102 0.215757
1252 8 0.94925 0.791463 0.0850888
1253 9 0.953007 0.821793 0.0747086
1254 9 0.943848 0.794031 0.114506
1443 9 0.997201 0.823368 0.114201
1747 8 0.957995 0.879368 0.0685331
1748 9 0.956223 0.887734 0.0357271
1749 9 0.95245 0.901657 0.0880926
994 8 0.0662439 0.0414158 0.349376
995 9 0.0706976 0.034542 0.319121
996 9 0.0588077 0.0666263 0.347536
1459 8 0.03757 0.141937 0.443478
1460 9 0.0456767 0.164441 0.450149
1461 9 0.0403256 0.110739 0.453474
1500 9 0.0633046 0.000600857 0.47086
2191 8 0.0759145 0.0145941 0.431769
2192 9 0.0714947 0.0235563 0.401556
2665 8 0.00456393 0.141775 0.460938
2666 9 0.0126998 0.144012 0.437594
2667 9 0.00822695 0.153146 0.490856
2817 9 0.0451609 0.226322 0.305512
1033 8 0.0806935 0.224378 0.49122
967 8 0.121988 0.144391 0.472618
968 9 0.122375 0.132794 0.440707
969 9 0.114668 0.16997 0.475554
1000 8 0.150521 0.147929 0.352321
1001 9 0.157047 0.173647 0.36317
1002 9 0.15672 0.12221 0.340605
1034 9 0.0887007 0.227478 0.467293
1315 8 0.163465 0.0215122 0.343985
1405 8 0.100742 0.237119 0.422667
1407 9 0.0953654 0.232752 0.393337
1942 8 0.122857 0.123829 0.38002
1943 9 0.133551 0.132191 0.371924
1944 9 0.115568 0.145777 0.366675
2146 8 0.120783 0.0367026 0.303489
2147 9 0.130931 0.0225071 0.307183
2148 9 0.118668 0.0590509 0.328068
2193 9 0.0866046 0.0243832 0.435461
1316 9 0.160164 0.0176781 0.37598
2559 9 0.166171 0.247763 0.365868
1317 9 0.174238 0.0121197 0.339643
388 8 0.193772 0.00919442 0.477363
390 9 0.200094 0.0244869 0.453723
1231 8 0.204418 0.065726 0.407681
1232 9 0.2137 0.0814835 0.396688
1233 9 0.197033 0.0874448 0.421179
2448 9 0.197602 0.0271226 0.364077
2557 8 0.169251 0.216983 0.376307
2558 9 0.177484 0.218461 0.399386
1864 8 0.167328 0.052056 0.492167
1865 9 0.176947 0.035292 0.485373
366 9 0.254073 0.00420068 0.372727
1240 8 0.274482 0.119901 0.366891
1241 9 0.281062 0.130951 0.392006
1242 9 0.265221 0.138707 0.363199
2244 9 0.277928 0.15761 0.265104
2650 8 0.280299 0.0308727 0.35014
2651 9 0.282488 0.0186703 0.381224
2652 9 0.278779 0.0646424 0.351372
2788 8 0.274166 0.234739 0.485963
2919 9 0.332019 0.112346 0.491837
2983 8 0.318225 0.026453 0.258889
2985 9 0.320107 0.0593479 0.252469
2765 9 0.281089 0.0205653 0.460336
2358 9 0.315718 0.0572706 0.483216
1465 8 0.343408 0.212156 0.252642
1466 9 0.350695 0.236337 0.262901
2549 9 0.415315 0.116268 0.263086
673 8 0.351879 0.134753 0.296284
674 9 0.349531 0.16508 0.282588
675 9 0.343287 0.113255 0.292322
1136 9 0.357123 0.17989 0.48499
1834 8 0.409217 0.00887065 0.387538
1835 9 0.403138 0.00120771 0.359986
2053 8 0.395333 0.131643 0.319749
2054 9 0.396614 0.104221 0.339157
2055 9 0.384833 0.133849 0.3074
2083 8 0.401365 0.212798 0.359687
2084 9 0.409515 0.208597 0.382592
2085 9 0.399503 0.18415 0.342063
2917 8 0.335041 0.0912659 0.466751
2918 9 0.34541 0.0983345 0.455665
756 9 0.404747 0.00513818 0.272669
2325 9 0.345199 0.00678905 0.467894
154 8 0.499148 0.200339 0.474517
156 9 0.495532 0.22525 0.454305
325 8 0.444344 0.122554 0.322041
326 9 0.455603 0.122427 0.320443
327 9 0.44062 0.122884 0.353917
919 8 0.499063 0.0741562 0.356638
920 9 0.494186 0.0462827 0.344259
2548 8 0.425417 0.106223 0.251811
2550 9 0.433311 0.109987 0.276042
744 9 0.568686 0.0652685 0.257192
169 8 0.527079 0.165663 0.309737
170 9 0.538079 0.15884 0.307779
171 9 0.524582 0.185828 0.335792
535 8 0.568269 0.248048 0.284418
537 9 0.5594 0.243564 0.304534
742 8 0.569395 0.0324353 0.264745