LAMMPS (17 Apr 2024)
OMP_NUM_THREADS environment is not set. Defaulting to 1 thread. (src/comm.cpp:98)
  using 1 OpenMP thread(s) per MPI task
units lj
dimension 3
atom_style atomic
pair_style lj/cut 2.5
boundary p p p

region simulation_box block -20 20 -20 20 -20 20
create_box 1 simulation_box
Created orthogonal box = (-20 -20 -20) to (20 20 20)
  1 by 1 by 1 MPI processor grid
create_atoms 1 random 1000 341841 simulation_box
Created 1000 atoms
  using lattice units in orthogonal box = (-20 -20 -20) to (20 20 20)
  create_atoms CPU = 0.000 seconds

mass 1 1
pair_coeff 1 1 1.0 1.0

dump mydmp all atom 100 dump.lammpstrj
thermo 100
thermo_style custom step temp pe ke etotal press

fix mynve all nve
fix mylgv all langevin 0.001 0.001 0.001 1530917
timestep 0.0001

run 10000
Generated 0 of 0 mixed pair_coeff terms from geometric mixing rule
Neighbor list info ...
  update: every = 1 steps, delay = 0 steps, check = yes
  max neighbors/atom: 2000, page size: 100000
  master list distance cutoff = 2.8
  ghost atom cutoff = 2.8
  binsize = 1.4, bins = 29 29 29
  1 neighbor lists, perpetual/occasional/extra = 1 0 0
  (1) pair lj/cut, perpetual
      attributes: half, newton on
      pair build: half/bin/atomonly/newton
      stencil: half/bin/3d
      bin: standard
Per MPI rank memory allocation (min/avg/max) = 3.217 | 3.217 | 3.217 Mbytes
   Step          Temp          PotEng         KinEng         TotEng         Press     
         0   0              2722.52        0              2722.52        170.35982    
       100   0.023202984    0.93517821     0.034769672    0.96994788     0.072595317  
       200   0.0086092449   0.5729502      0.012900953    0.58585115     0.048392252  
       300   0.0050721949   0.41256763     0.0076006841   0.42016832     0.037573251  
       400   0.003601055    0.31753809     0.005396181    0.32293427     0.0311026    
       500   0.0028287791   0.25385006     0.0042389255   0.25808899     0.026729342  
       600   0.0023672963   0.2074571      0.0035473935   0.21100449     0.023519342  
       700   0.0020990564   0.17229148     0.003145436    0.17543691     0.021069451  
       800   0.0018433498   0.14450517     0.0027622597   0.14726743     0.019118491  
       900   0.0016992392   0.12187977     0.0025463099   0.12442608     0.017521099  
      1000   0.0015501596   0.1030946      0.0023229141   0.10541752     0.016187647  
      1100   0.0015020766   0.08696737     0.0022508617   0.089218231    0.015035772  
      1200   0.0014555644   0.073351895    0.0021811633   0.075533058    0.014058717  
      1300   0.0013305162   0.061334224    0.0019937785   0.063328002    0.01319076   
      1400   0.0013022178   0.050800639    0.0019513734   0.052752012    0.012426947  
      1500   0.0013045438   0.041548977    0.0019548588   0.043503836    0.011753231  
      1600   0.0012922573   0.033112207    0.0019364475   0.035048655    0.011136886  
      1700   0.0012012012   0.025575919    0.0018         0.027375919    0.010581365  
      1800   0.0012082158   0.018891072    0.0018105114   0.020701583    0.010087726  
      1900   0.0012035322   0.01293984     0.001803493    0.014743333    0.0096465911 
      2000   0.0011843532   0.0075783174   0.0017747533   0.0093530708   0.0092481399 
      2100   0.0011355074   0.0024579322   0.0017015579   0.0041594901   0.0088641732 
      2200   0.0011306666  -0.0022104194   0.0016943039  -0.00051611556  0.0085122956 
      2300   0.0011139478  -0.0065501133   0.0016692508  -0.0048808625   0.0081851544 
      2400   0.0011362916  -0.010580888    0.0017027329  -0.0088781549   0.0078807683 
      2500   0.0010751396  -0.014281563    0.0016110966  -0.012670467    0.0075984452 
      2600   0.0010985722  -0.017882089    0.0016462105  -0.016235879    0.0073236881 
      2700   0.0011072122  -0.02119817     0.0016591576  -0.019539013    0.0070698473 
      2800   0.0010789948  -0.024290558    0.0016168737  -0.022673684    0.0068309523 
      2900   0.0011183166  -0.027220032    0.0016757974  -0.025544235    0.0066055089 
      3000   0.0010696433  -0.029998661    0.0016028606  -0.0283958      0.0063895819 
      3100   0.0011379183  -0.032566647    0.0017051705  -0.030861477    0.0061909244 
      3200   0.0010909659  -0.034970291    0.0016348123  -0.033335479    0.006002126  
      3300   0.0010597932  -0.037164037    0.0015881001  -0.035575937    0.0058302388 
      3400   0.0010676501  -0.039272908    0.0015998737  -0.037673035    0.0056650923 
      3500   0.0011067272  -0.041352712    0.0016584307  -0.039694281    0.0055011619 
      3600   0.0010715888  -0.043274797    0.0016057759  -0.041669021    0.005348668  
      3700   0.0010508635  -0.045116629    0.001574719   -0.04354191     0.0052025636 
      3800   0.0010781811  -0.046837235    0.0016156543  -0.045221581    0.0050662956 
      3900   0.001008035   -0.04855291     0.0015105405  -0.047042369    0.0049286714 
      4000   0.0010511648  -0.05009981     0.0015751704  -0.048524639    0.0048052522 
      4100   0.0010478089  -0.051602591    0.0015701416  -0.050032449    0.0046850946 
      4200   0.0010788591  -0.0530509      0.0016166704  -0.05143423     0.0045686799 
      4300   0.0010598401  -0.054483531    0.0015881704  -0.052895361    0.004453099  
      4400   0.0010481944  -0.055774929    0.0015707193  -0.054204209    0.0043484515 
      4500   0.0010106824  -0.057049875    0.0015145076  -0.055535367    0.0042444012 
      4600   0.0010279708  -0.058223954    0.0015404142  -0.05668354     0.0041492068 
      4700   0.0010492512  -0.059427988    0.0015723029  -0.057855685    0.0040504647 
      4800   0.0010398283  -0.060561366    0.0015581828  -0.059003183    0.0039570198 
      4900   0.0010662578  -0.06162747     0.0015977873  -0.060029682    0.0038687767 
      5000   0.001025219   -0.062688993    0.0015362906  -0.061152702    0.0037807412 
      5100   0.0010273697  -0.063683029    0.0015395135  -0.062143515    0.003699058  
      5200   0.00099789782 -0.064650042    0.0014953499  -0.063154693    0.0036184179 
      5300   0.0010387349  -0.065599784    0.0015565443  -0.06404324     0.0035394987 
      5400   0.0010729097  -0.066490454    0.0016077552  -0.064882699    0.0034664592 
      5500   0.0010551535  -0.067346301    0.0015811474  -0.065765153    0.0033949608 
      5600   0.0010017836  -0.068234306    0.0015011727  -0.066733133    0.0033198221 
      5700   0.0010474222  -0.069103482    0.0015695622  -0.06753392     0.0032480059 
      5800   0.0010257287  -0.069829489    0.0015370545  -0.068292434    0.0031856548 
      5900   0.0010312781  -0.070589316    0.0015453702  -0.069043946    0.0031221033 
      6000   0.00099358231 -0.071398904    0.0014888831  -0.069910021    0.0030530015 
      6100   0.0010218353  -0.072133609    0.0015312203  -0.070602389    0.0029914754 
      6200   0.0010290238  -0.072844309    0.0015419921  -0.071302317    0.0029320569 
      6300   0.0010373361  -0.073569237    0.0015544482  -0.072014789    0.0028702508 
      6400   0.0010209992  -0.074230726    0.0015299673  -0.072700758    0.0028134265 
      6500   0.0010521786  -0.074828181    0.0015766897  -0.073251491    0.0027631219 
      6600   0.0010056839  -0.075454528    0.0015070174  -0.07394751     0.0027090297 
      6700   0.0010281318  -0.076067598    0.0015406555  -0.074526943    0.0026563998 
      6800   0.00097922418 -0.076638264    0.0014673674  -0.075170896    0.0026066011 
      6900   0.0010313579  -0.077221197    0.0015454899  -0.075675707    0.0025576394 
      7000   0.0010483609  -0.077787654    0.0015709688  -0.076216685    0.0025086158 
      7100   0.0010301979  -0.078442871    0.0015437515  -0.07689912     0.0024519279 
      7200   0.0010299078  -0.078942973    0.0015433169  -0.077399656    0.0024089414 
      7300   0.0010064364  -0.079504895    0.001508145   -0.07799675     0.0023596041 
      7400   0.0010156689  -0.080098738    0.0015219799  -0.078576758    0.0023080368 
      7500   0.001032428   -0.080591486    0.0015470934  -0.079044393    0.0022636947 
      7600   0.001040254   -0.08108369     0.0015588206  -0.079524869    0.0022210756 
      7700   0.001022084   -0.08155026     0.0015315929  -0.080018667    0.0021790454 
      7800   0.0010374054  -0.082019328    0.0015545521  -0.080464776    0.0021378093 
      7900   0.00094881915 -0.082489224    0.0014218055  -0.081067419    0.0020948878 
      8000   0.0010280963  -0.082931036    0.0015406023  -0.081390434    0.0020559698 
      8100   0.0010035967  -0.083351972    0.0015038896  -0.081848082    0.0020181318 
      8200   0.00099528773 -0.083795075    0.0014914387  -0.082303636    0.0019784453 
      8300   0.0010178951  -0.084194419    0.0015253158  -0.082669103    0.0019439259 
      8400   0.0010049805  -0.084630038    0.0015059633  -0.083124075    0.0019046103 
      8500   0.0010554976  -0.085068068    0.0015816631  -0.083486405    0.0018660573 
      8600   0.0009973869  -0.085433619    0.0014945843  -0.083939035    0.0018317407 
      8700   0.0010092321  -0.085783638    0.0015123343  -0.084271303    0.0017998098 
      8800   0.0010464137  -0.086115341    0.0015680509  -0.08454729     0.0017706292 
      8900   0.0010320086  -0.086503427    0.0015464649  -0.084956962    0.0017354574 
      9000   0.0010144885  -0.086841053    0.001520211   -0.085320842    0.0017050737 
      9100   0.0010279988  -0.087237343    0.0015404562  -0.085696887    0.0016694104 
      9200   0.0009982239  -0.08759217     0.0014958385  -0.086096331    0.0016366463 
      9300   0.0010214986  -0.087889878    0.0015307157  -0.086359162    0.0016092647 
      9400   0.0010338541  -0.088189628    0.0015492304  -0.086640397    0.0015838854 
      9500   0.001007937   -0.088532986    0.0015103936  -0.087022593    0.0015523879 
      9600   0.0010246146  -0.088822554    0.001535385   -0.087287169    0.001525135  
      9700   0.0010114619  -0.08912921     0.0015156756  -0.087613534    0.0014968606 
      9800   0.00097231652 -0.089468723    0.0014570163  -0.088011706    0.001465076  
      9900   0.00096428528 -0.089741821    0.0014449815  -0.08829684     0.0014399481 
     10000   0.0010759724  -0.090087545    0.0016123446  -0.088475201    0.0014102132 
Loop time of 1.35506 on 1 procs for 10000 steps with 1000 atoms

Performance: 63761.016 tau/day, 7379.747 timesteps/s, 7.380 Matom-step/s
100.0% CPU use with 1 MPI tasks x 1 OpenMP threads

MPI task timing breakdown:
Section |  min time  |  avg time  |  max time  |%varavg| %total
---------------------------------------------------------------
Pair    | 0.2611     | 0.2611     | 0.2611     |   0.0 | 19.27
Neigh   | 0.0041195  | 0.0041195  | 0.0041195  |   0.0 |  0.30
Comm    | 0.058594   | 0.058594   | 0.058594   |   0.0 |  4.32
Output  | 0.052831   | 0.052831   | 0.052831   |   0.0 |  3.90
Modify  | 0.9159     | 0.9159     | 0.9159     |   0.0 | 67.59
Other   |            | 0.06251    |            |       |  4.61

Nlocal:           1000 ave        1000 max        1000 min
Histogram: 1 0 0 0 0 0 0 0 0 0
Nghost:            458 ave         458 max         458 min
Histogram: 1 0 0 0 0 0 0 0 0 0
Neighs:            738 ave         738 max         738 min
Histogram: 1 0 0 0 0 0 0 0 0 0

Total # of neighbors = 738
Ave neighs/atom = 0.738
Neighbor list builds = 15
Dangerous builds = 8

fix mylgv all langevin 0.1 0.1 0.1 1530917
timestep 0.005

run 10000
Generated 0 of 0 mixed pair_coeff terms from geometric mixing rule
Per MPI rank memory allocation (min/avg/max) = 4.255 | 4.255 | 4.255 Mbytes
   Step          Temp          PotEng         KinEng         TotEng         Press     
     10000   0.0010759724  -0.090087545    0.0016123446  -0.088475201    0.0014102132 
     10100   0.099364384   -0.13076149     0.14889753     0.01813604    -9.1915463e-05
     10200   0.10275279    -0.14975132     0.15397505     0.0042237329  -3.735663e-06 
     10300   0.10124318    -0.16926385     0.15171291    -0.017550941    0.00059824175
     10400   0.10364004    -0.183243       0.15530461    -0.027938395    0.00022322212
     10500   0.10448983    -0.19386371     0.15657801    -0.037285696    0.00083534616
     10600   0.10399       -0.20738249     0.15582901    -0.051553477    0.00047793033
     10700   0.10130394    -0.21626707     0.15180395    -0.064463117    0.00029911485
     10800   0.10389666    -0.22943448     0.15568915    -0.073745328    0.00051127349
     10900   0.10030486    -0.24049655     0.15030683    -0.090189717    0.00037614822
     11000   0.098065844   -0.251272       0.14695167    -0.10432033     0.00015561619
     11100   0.10188362    -0.26072668     0.15267261    -0.10805407     0.00069408933
     11200   0.10452243    -0.27572181     0.15662686    -0.11909495     0.00040520138
     11300   0.097457821   -0.28519014     0.14604055    -0.1391496      0.0004164752 
     11400   0.10049808    -0.2921809      0.15059637    -0.14158454     0.00062500318
     11500   0.099483591   -0.30307776     0.14907616    -0.1540016      0.00081503626
     11600   0.10271182    -0.31192988     0.15391367    -0.15801622     0.00025394565
     11700   0.097136609   -0.32024918     0.14555921    -0.17468997     0.00045769368
     11800   0.098403904   -0.32431728     0.14745825    -0.17685903     0.00034897167
     11900   0.10393263    -0.32690452     0.15574304    -0.17116147     0.00093636715
     12000   0.10405021    -0.33625059     0.15591923    -0.18033136     0.0009466263 
     12100   0.09610945    -0.34199825     0.14402001    -0.19797824     0.00043467175
     12200   0.098897462   -0.35104522     0.14819785    -0.20284737     0.000514212  
     12300   0.099159612   -0.35820637     0.14859068    -0.20961569     0.00074685202
     12400   0.10198545    -0.36056742     0.1528252     -0.20774222     0.00041940988
     12500   0.094499387   -0.36336023     0.14160733    -0.22175289     0.00052509733
     12600   0.10213784    -0.37058472     0.15305356    -0.21753116     0.00052927761
     12700   0.099107691   -0.37648933     0.14851287    -0.22797646     0.00071193825
     12800   0.1015897     -0.38207349     0.15223217    -0.22984132     0.0003032924 
     12900   0.105413      -0.3893006      0.15796138    -0.23133923     6.0637768e-05
     13000   0.09861459    -0.39786154     0.14777396    -0.25008757     0.00054430956
     13100   0.10420407    -0.40563093     0.15614981    -0.24948113     0.00069230492
     13200   0.10082708    -0.41173512     0.15108938    -0.26064574     0.00056423803
     13300   0.10059572    -0.41872994     0.15074269    -0.26798725     0.00084655195
     13400   0.10089082    -0.42481346     0.1511849     -0.27362856     0.00071478988
     13500   0.10449285    -0.43057346     0.15658253    -0.27399093     0.0011829489 
     13600   0.10010651    -0.43369497     0.15000961    -0.28368536     0.00033988433
     13700   0.098905264   -0.43875007     0.14820954    -0.29054053    -0.00021367557
     13800   0.10326334    -0.44495139     0.15474011    -0.29021128     0.00029135268
     13900   0.097738085   -0.4493567      0.14646052    -0.30289618     0.0006032691 
     14000   0.10035572    -0.45693299     0.15038304    -0.30654995     0.00026758661
     14100   0.10111041    -0.45727873     0.15151394    -0.30576479     0.00037933803
     14200   0.100146      -0.46424082     0.15006879    -0.31417203     0.00068840127
     14300   0.10162989    -0.46713196     0.15229239    -0.31483957     0.00060149036
     14400   0.098988155   -0.47416256     0.14833375    -0.32582881     0.00052479937
     14500   0.096850453   -0.47962187     0.1451304     -0.33449146     0.00037134623
     14600   0.098386559   -0.4861017      0.14743226    -0.33866944     0.00028456458
     14700   0.097467514   -0.49364403     0.14605507    -0.34758896     0.0005029333 
     14800   0.10130208    -0.49698351     0.15180117    -0.34518234     0.00031966746
     14900   0.10284299    -0.50610231     0.15411022    -0.35199209     0.00069581532
     15000   0.10169769    -0.50956865     0.15239398    -0.35717467     0.00071540775
     15100   0.09780406    -0.50819543     0.14655938    -0.36163605     0.0002227328 
     15200   0.095424769   -0.51541642     0.14299402    -0.37242241     0.00071271335
     15300   0.10117772    -0.51951991     0.15161481    -0.3679051      0.0005959619 
     15400   0.1022499     -0.52254655     0.15322148    -0.36932508     0.00025748479
     15500   0.10427919    -0.52639        0.15626237    -0.37012763     0.00026946468
     15600   0.099456377   -0.53429867     0.14903538    -0.38526329     0.00047981886
     15700   0.099707118   -0.54108666     0.14941112    -0.39167554     0.00091442115
     15800   0.10056699    -0.54051707     0.15069963    -0.38981744     0.00039463863
     15900   0.10005965    -0.54712867     0.14993938    -0.39718929     0.00021109899
     16000   0.099141554   -0.54886888     0.14856362    -0.40030526     0.00091000495
     16100   0.10156705    -0.55738159     0.15219822    -0.40518336     0.00089177348
     16200   0.1014864     -0.56005366     0.15207737    -0.4079763      0.00058796617
     16300   0.098990948   -0.56600068     0.14833794    -0.41766275     0.00033389526
     16400   0.09937155    -0.56731806     0.14890827    -0.4184098      0.00039806018
     16500   0.10389856    -0.56917731     0.15569199    -0.41348532     0.00044713855
     16600   0.099486052   -0.57449746     0.14907985    -0.42541761     0.00093605111
     16700   0.10099854    -0.58198395     0.15134631    -0.43063765     0.00012371735
     16800   0.095770538   -0.57991435     0.14351215    -0.4364022      0.00046261165
     16900   0.10156095    -0.58857065     0.15218908    -0.43638157     0.00080657117
     17000   0.10403566    -0.59223872     0.15589744    -0.43634128     0.00077732283
     17100   0.10048714    -0.59260103     0.15057997    -0.44202106    -0.00011271206
     17200   0.098656116   -0.59811192     0.14783619    -0.45027573     0.00042046476
     17300   0.097744135   -0.60029976     0.14646959    -0.45383017     0.00065798152
     17400   0.097739095   -0.60644914     0.14646203    -0.4599871      0.00080739726
     17500   0.10094995    -0.612355       0.1512735     -0.4610815      0.001247489  
     17600   0.10035647    -0.616279       0.15038417    -0.46589483     0.00045909166
     17700   0.098899551   -0.6181684      0.14820098    -0.46996742    -0.00018620164
     17800   0.099733043   -0.61924256     0.14944996    -0.4697926      0.00075762145
     17900   0.094695397   -0.6239266      0.14190105    -0.48202555     0.00072808511
     18000   0.099753438   -0.62835017     0.14948053    -0.47886964     0.000656538  
     18100   0.099122989   -0.63564074     0.1485358     -0.48710494     0.000375657  
     18200   0.10056377    -0.63898034     0.15069481    -0.48828552     0.0013380924 
     18300   0.10037877    -0.64220087     0.15041758    -0.49178328     0.00077253222
     18400   0.099854233   -0.64671727     0.14963157    -0.4970857      0.00032013177
     18500   0.10217524    -0.6520964      0.1531096     -0.4989868      0.00023066397
     18600   0.099716396   -0.65623874     0.14942502    -0.50681372     0.00087924465
     18700   0.098837281   -0.66175176     0.14810767    -0.5136441      0.00025324258
     18800   0.10093925    -0.6624797      0.15125747    -0.51122223     0.00024648265
     18900   0.10318663    -0.66843902     0.15462516    -0.51381386    -0.00013400749
     19000   0.10049246    -0.67200411     0.15058796    -0.52141616    -0.00032306631
     19100   0.10049407    -0.68042142     0.15059037    -0.52983105     0.0005088381 
     19200   0.09806118    -0.68537151     0.14694468    -0.53842683    -6.386529e-05 
     19300   0.10683422    -0.69070203     0.16009108    -0.53061095     0.00012722347
     19400   0.10414992    -0.69982984     0.15606866    -0.54376118     0.00023500637
     19500   0.098874916   -0.70541507     0.14816406    -0.55725101     0.00056171752
     19600   0.10081985    -0.70715391     0.15107854    -0.55607536     0.00097993323
     19700   0.099052019   -0.70445331     0.14842945    -0.55602386     0.00015587782
     19800   0.095267728   -0.71385673     0.14275869    -0.57109804     0.00039318333
     19900   0.095958421   -0.72002829     0.14379369    -0.5762346     -0.00030561307
     20000   0.104503      -0.72173913     0.15659774    -0.56514139     0.00050287371
Loop time of 1.55265 on 1 procs for 10000 steps with 1000 atoms

Performance: 2782345.682 tau/day, 6440.615 timesteps/s, 6.441 Matom-step/s
100.0% CPU use with 1 MPI tasks x 1 OpenMP threads

MPI task timing breakdown:
Section |  min time  |  avg time  |  max time  |%varavg| %total
---------------------------------------------------------------
Pair    | 0.33393    | 0.33393    | 0.33393    |   0.0 | 21.51
Neigh   | 0.098412   | 0.098412   | 0.098412   |   0.0 |  6.34
Comm    | 0.06864    | 0.06864    | 0.06864    |   0.0 |  4.42
Output  | 0.056086   | 0.056086   | 0.056086   |   0.0 |  3.61
Modify  | 0.92858    | 0.92858    | 0.92858    |   0.0 | 59.81
Other   |            | 0.06699    |            |       |  4.31

Nlocal:           1000 ave        1000 max        1000 min
Histogram: 1 0 0 0 0 0 0 0 0 0
Nghost:            443 ave         443 max         443 min
Histogram: 1 0 0 0 0 0 0 0 0 0
Neighs:           1048 ave        1048 max        1048 min
Histogram: 1 0 0 0 0 0 0 0 0 0

Total # of neighbors = 1048
Ave neighs/atom = 1.048
Neighbor list builds = 346
Dangerous builds = 0
Total wall time: 0:00:02
