ITEM: TIMESTEP
0
ITEM: NUMBER OF ATOMS
708
ITEM: BOX BOUNDS pp pp pp
-1.0000000000000000e+02 1.0000000000000000e+02
-1.0000000000000000e+02 1.0000000000000000e+02
-1.0000000000000000e+02 1.0000000000000000e+02
ITEM: ATOMS id type xs ys zs
14 1 0.508102 0.477252 0.359837
59 1 0.48757 0.477257 0.394217
60 1 0.490055 0.478054 0.38106
64 1 0.499777 0.473543 0.389445
65 1 0.501179 0.472785 0.396355
8 1 0.492431 0.478242 0.369353
9 1 0.494667 0.476996 0.375921
11 1 0.501549 0.475789 0.377354
66 1 0.504171 0.474652 0.383939
67 1 0.511203 0.475103 0.384868
68 1 0.514192 0.473902 0.391077
10 1 0.496858 0.477535 0.363987
12 1 0.503686 0.476828 0.36527
13 1 0.506061 0.476352 0.371912
15 1 0.512983 0.476994 0.373051
17 1 0.515442 0.477171 0.379647
16 1 0.514997 0.477514 0.360981
18 1 0.517364 0.477553 0.367569
69 1 0.521739 0.479978 0.381312
87 1 0.4781 0.514996 0.398226
86 1 0.476667 0.512827 0.386276
85 1 0.475258 0.510973 0.393044
76 1 0.472451 0.504511 0.394524
35 1 0.474994 0.510896 0.374126
34 1 0.473528 0.509595 0.380851
73 1 0.472195 0.499611 0.38953
77 1 0.474296 0.493086 0.390864
54 1 0.475842 0.491109 0.39737
56 1 0.479624 0.485322 0.398407
36 1 0.477885 0.514188 0.360727
33 1 0.474326 0.508375 0.362203
24 1 0.472766 0.506625 0.368837
21 1 0.469926 0.500172 0.369691
22 1 0.467149 0.497973 0.375729
55 1 0.476204 0.489116 0.385489
23 1 0.471323 0.495464 0.364602
1 1 0.475028 0.489562 0.365736
2 1 0.476662 0.487442 0.372224
3 1 0.478484 0.486695 0.360351
37 1 0.479621 0.51606 0.372744
6 1 0.483999 0.481492 0.380295
5 1 0.484032 0.482561 0.361598
7 1 0.486079 0.481094 0.368194
50 1 0.518141 0.518025 0.365008
88 1 0.481837 0.517419 0.384788
38 1 0.480683 0.517792 0.366001
57 1 0.480748 0.483838 0.386203
58 1 0.482504 0.481965 0.392869
4 1 0.482112 0.483214 0.373646
25 2 0.506416 0.504487 0.379213
42 2 0.491068 0.502246 0.368543
79 2 0.507273 0.49 0.393158
62 2 0.491404 0.497961 0.388309
78 2 0.505295 0.507061 0.397936
89 1 0.483648 0.519105 0.396795
39 1 0.483562 0.518838 0.378028
51 1 0.521421 0.516754 0.376797
82 1 0.524372 0.503808 0.393006
105 1 0.522904 0.510621 0.394224
28 1 0.524071 0.505638 0.380903
103 1 0.522816 0.512437 0.382104
102 1 0.522234 0.514841 0.388647
32 1 0.525352 0.498847 0.360998
27 1 0.523694 0.505501 0.362313
53 1 0.52341 0.507785 0.368931
52 1 0.521366 0.514425 0.370183
72 1 0.524998 0.490013 0.390684
80 1 0.525042 0.492454 0.397252
84 1 0.524952 0.499418 0.398466
19 1 0.524805 0.484809 0.377185
26 1 0.525351 0.491763 0.378517
81 1 0.52506 0.494324 0.385144
83 1 0.524663 0.50127 0.386371
20 1 0.528132 0.48783 0.364239
29 1 0.526253 0.494277 0.366235
31 1 0.525521 0.496324 0.373024
30 1 0.524488 0.503245 0.374278
100 1 0.51416 0.521977 0.397092
98 1 0.507745 0.524628 0.398193
99 1 0.512071 0.528221 0.385036
97 1 0.505496 0.525971 0.386141
96 1 0.503237 0.525294 0.392789
95 1 0.496379 0.524282 0.394083
49 1 0.512432 0.522062 0.366038
48 1 0.510157 0.52352 0.372512
46 1 0.50338 0.524531 0.374042
45 1 0.501051 0.524907 0.380733
93 1 0.494228 0.523489 0.382069
92 1 0.492 0.522895 0.388734
90 1 0.485709 0.52002 0.390098
47 1 0.507935 0.522917 0.360706
44 1 0.501105 0.523934 0.362079
43 1 0.498831 0.524147 0.368738
41 1 0.492076 0.523177 0.370184
40 1 0.489763 0.522134 0.376756
111 1 0.486135 0.478572 0.405847
112 1 0.494886 0.47271 0.414182
61 1 0.490041 0.475996 0.400661
63 1 0.496725 0.473684 0.401881
114 1 0.499309 0.473252 0.408645
116 1 0.506187 0.474226 0.410273
118 1 0.510906 0.475942 0.405303
120 1 0.517275 0.478487 0.406774
162 1 0.484363 0.479288 0.437333
164 1 0.489796 0.475007 0.438631
110 1 0.483549 0.479189 0.418807
163 1 0.485786 0.477579 0.425238
165 1 0.491772 0.47384 0.426272
167 1 0.493364 0.472536 0.433043
113 1 0.496683 0.472799 0.421029
115 1 0.503676 0.473258 0.422313
169 1 0.506185 0.473542 0.428855
171 1 0.512204 0.476673 0.430647
172 1 0.513826 0.478022 0.437457
117 1 0.508211 0.474613 0.41707
119 1 0.514569 0.477327 0.418703
173 1 0.516132 0.479217 0.425394
121 1 0.518974 0.479017 0.41351
138 1 0.476289 0.514254 0.404997
126 1 0.473717 0.504386 0.413931
124 1 0.474328 0.497481 0.414932
74 1 0.472325 0.501944 0.401062
75 1 0.474222 0.49534 0.402711
127 1 0.475306 0.493163 0.409397
107 1 0.478406 0.486873 0.410584
194 1 0.477096 0.511 0.430713
193 1 0.476602 0.508821 0.437369
181 1 0.475244 0.502062 0.438756
139 1 0.478648 0.515064 0.417163
137 1 0.475302 0.509023 0.418883
182 1 0.475202 0.506715 0.425511
178 1 0.4747 0.499792 0.42684
180 1 0.475153 0.497461 0.433447
157 1 0.476778 0.490728 0.43473
125 1 0.475155 0.495218 0.421514
106 1 0.477477 0.48871 0.422742
159 1 0.478637 0.486549 0.429364
108 1 0.479557 0.484773 0.417304
140 1 0.479903 0.516967 0.410401
154 1 0.518866 0.516897 0.414255
101 1 0.517674 0.518712 0.402224
109 1 0.481109 0.483384 0.404995
209 1 0.518852 0.517369 0.432918
153 1 0.517301 0.518789 0.420871
141 1 0.4821 0.518366 0.422389
196 1 0.480795 0.516768 0.429139
161 1 0.482649 0.480864 0.430663
174 1 0.518722 0.482936 0.43885
186 2 0.507647 0.497603 0.428854
183 2 0.491406 0.5034 0.425948
131 2 0.509298 0.493586 0.40935
128 2 0.490232 0.50408 0.405652
130 2 0.503937 0.508525 0.416108
129 2 0.49483 0.490262 0.415796
70 1 0.520888 0.48189 0.401714
135 1 0.524737 0.501933 0.405081
156 1 0.523163 0.508694 0.406303
155 1 0.522319 0.510887 0.412984
104 1 0.5216 0.512924 0.400846
71 1 0.524306 0.488025 0.402645
123 1 0.525216 0.49062 0.409051
134 1 0.525255 0.497475 0.410509
188 1 0.523558 0.507035 0.437199
212 1 0.52135 0.513634 0.438439
136 1 0.524947 0.49976 0.417236
132 1 0.523751 0.506618 0.418437
213 1 0.52301 0.508956 0.425083
210 1 0.520052 0.515228 0.426299
175 1 0.520653 0.484466 0.42696
177 1 0.521424 0.486687 0.433558
187 1 0.523778 0.493237 0.434772
122 1 0.523207 0.488565 0.421913
133 1 0.524649 0.495351 0.422806
191 1 0.524552 0.497753 0.429396
190 1 0.524073 0.504662 0.430571
152 1 0.515828 0.520217 0.408858
150 1 0.509885 0.523814 0.410111
148 1 0.505438 0.524964 0.40479
146 1 0.498536 0.52513 0.406074
145 1 0.49629 0.525096 0.412734
144 1 0.489698 0.523113 0.414154
94 1 0.49407 0.523987 0.400743
91 1 0.487575 0.521634 0.402133
142 1 0.485577 0.520844 0.408888
208 1 0.51414 0.522523 0.43388
151 1 0.511954 0.523245 0.422079
207 1 0.509994 0.52477 0.428663
205 1 0.503276 0.526715 0.429993
204 1 0.500801 0.527752 0.436556
202 1 0.494124 0.526029 0.438117
149 1 0.507716 0.524813 0.416712
147 1 0.500884 0.525826 0.41803
203 1 0.498651 0.526089 0.424697
200 1 0.491939 0.524506 0.426129
199 1 0.489933 0.523846 0.432864
198 1 0.484218 0.520045 0.434336
143 1 0.487704 0.52236 0.420877
219 1 0.485882 0.477828 0.462757
275 1 0.487716 0.47663 0.469464
277 1 0.494167 0.474199 0.470877
220 1 0.487984 0.476468 0.450714
221 1 0.489892 0.475464 0.457449
222 1 0.496494 0.473545 0.458916
224 1 0.498757 0.473568 0.46558
226 1 0.505604 0.474509 0.466918
166 1 0.492074 0.474228 0.445369
223 1 0.498839 0.472755 0.446988
225 1 0.501099 0.473219 0.453636
227 1 0.507822 0.474946 0.454942
228 1 0.5099 0.476073 0.461576
230 1 0.515617 0.479984 0.462862
168 1 0.503691 0.472771 0.441951
170 1 0.510025 0.475592 0.44295
229 1 0.511939 0.476968 0.449581
273 1 0.483903 0.47929 0.474776
278 1 0.496416 0.473939 0.477538
279 1 0.503321 0.474207 0.478878
281 1 0.507771 0.475372 0.473552
283 1 0.513838 0.478705 0.474854
251 1 0.479928 0.515101 0.454508
250 1 0.478832 0.513211 0.461278
241 1 0.476354 0.506718 0.462638
292 1 0.475731 0.504441 0.469293
290 1 0.475256 0.497533 0.47065
195 1 0.478689 0.513012 0.442588
249 1 0.477836 0.510939 0.449268
238 1 0.475839 0.504359 0.450685
236 1 0.475552 0.502138 0.457344
237 1 0.475681 0.495225 0.458682
240 1 0.475998 0.492967 0.46534
215 1 0.478342 0.48647 0.466692
179 1 0.475326 0.499773 0.445389
239 1 0.476179 0.492929 0.446712
214 1 0.476795 0.490739 0.453362
216 1 0.479768 0.484505 0.454688
158 1 0.477693 0.488595 0.441373
303 1 0.479842 0.515074 0.473368
301 1 0.4768 0.508861 0.474658
291 1 0.47533 0.495228 0.477323
269 1 0.477125 0.488556 0.478701
271 1 0.479365 0.48449 0.473384
184 2 0.493666 0.493857 0.440214
185 2 0.501074 0.511384 0.442113
318 1 0.519454 0.517511 0.470593
265 1 0.518569 0.519672 0.458678
252 1 0.481141 0.517068 0.46676
197 1 0.482687 0.51862 0.44104
217 1 0.480941 0.482626 0.461371
160 1 0.48128 0.482693 0.44269
218 1 0.482689 0.480904 0.449357
285 1 0.517316 0.48166 0.469492
231 1 0.517226 0.481419 0.450857
232 1 0.518759 0.483245 0.457476
317 1 0.51789 0.518941 0.477379
305 1 0.482646 0.518714 0.478709
243 2 0.507916 0.497119 0.448503
309 2 0.497428 0.509512 0.472833
242 2 0.492856 0.501735 0.456473
295 2 0.508967 0.499013 0.465311
294 2 0.495487 0.491844 0.47333
247 1 0.525384 0.50259 0.461277
268 1 0.524098 0.509491 0.46244
320 1 0.523553 0.512077 0.46891
245 1 0.52433 0.504833 0.449235
267 1 0.522701 0.511548 0.450506
266 1 0.522044 0.513688 0.457189
211 1 0.520865 0.515816 0.445179
287 1 0.521593 0.487124 0.470758
233 1 0.522448 0.489108 0.458722
235 1 0.523582 0.491209 0.465337
246 1 0.525735 0.497801 0.466554
176 1 0.520053 0.484939 0.445473
234 1 0.523121 0.49116 0.446729
244 1 0.523925 0.493412 0.453347
248 1 0.524932 0.500275 0.454612
189 1 0.524157 0.495598 0.441364
192 1 0.524392 0.502529 0.442591
300 1 0.526888 0.499637 0.473225
288 1 0.522739 0.489162 0.477431
297 1 0.525466 0.495523 0.478743
264 1 0.516325 0.52095 0.465303
261 1 0.510403 0.524578 0.46676
263 1 0.518393 0.522186 0.446794
262 1 0.516918 0.52395 0.453383
260 1 0.505987 0.526346 0.461594
258 1 0.499089 0.527125 0.462633
310 1 0.496638 0.526473 0.469304
307 1 0.48995 0.524552 0.470821
206 1 0.505034 0.529927 0.441695
259 1 0.502776 0.530204 0.448298
257 1 0.496414 0.527855 0.450083
256 1 0.494803 0.527451 0.45698
255 1 0.48571 0.522283 0.465761
201 1 0.491992 0.525628 0.444908
254 1 0.485999 0.52201 0.446234
253 1 0.483826 0.520677 0.452759
316 1 0.51229 0.523046 0.478734
314 1 0.508123 0.525091 0.473404
312 1 0.501281 0.526379 0.47468
306 1 0.487997 0.523156 0.477426
391 1 0.485835 0.478137 0.51871
329 1 0.487738 0.476926 0.506769
393 1 0.489827 0.475827 0.513399
395 1 0.496482 0.473839 0.514734
328 1 0.483837 0.479463 0.493454
330 1 0.489753 0.475872 0.494802
331 1 0.49194 0.47508 0.501445
334 1 0.498759 0.473915 0.502786
336 1 0.501081 0.473863 0.509428
339 1 0.507826 0.475337 0.510821
399 1 0.509918 0.476159 0.517521
274 1 0.485679 0.477962 0.481468
276 1 0.491905 0.474962 0.482839
332 1 0.494137 0.47445 0.489489
335 1 0.501033 0.474009 0.49083
337 1 0.503339 0.474285 0.497468
340 1 0.509937 0.476345 0.498806
341 1 0.511975 0.477365 0.505477
280 1 0.505564 0.474777 0.485514
282 1 0.511928 0.477486 0.486829
342 1 0.513898 0.478707 0.493475
366 1 0.479356 0.51526 0.510564
420 1 0.477993 0.513441 0.51722
412 1 0.475558 0.506987 0.518668
365 1 0.478331 0.513141 0.498607
364 1 0.477193 0.511159 0.505266
351 1 0.475154 0.504562 0.506668
408 1 0.474898 0.502364 0.513375
409 1 0.475301 0.495472 0.514785
302 1 0.477453 0.511018 0.486639
363 1 0.476477 0.508914 0.493293
350 1 0.474911 0.502178 0.494666
348 1 0.47475 0.499934 0.501356
352 1 0.475561 0.493077 0.502751
323 1 0.476322 0.490955 0.509447
325 1 0.479417 0.484773 0.51079
293 1 0.475987 0.506668 0.481305
289 1 0.47495 0.499826 0.482657
349 1 0.474876 0.497546 0.489342
322 1 0.476155 0.490752 0.490722
324 1 0.476997 0.488668 0.497423
270 1 0.478022 0.486505 0.485392
401 1 0.515683 0.480016 0.518832
284 1 0.515644 0.480176 0.48149
435 1 0.517681 0.518963 0.514788
383 1 0.519366 0.517274 0.489497
367 1 0.482502 0.518665 0.497284
304 1 0.481094 0.516913 0.485324
389 1 0.480912 0.48299 0.517441
326 1 0.48063 0.482785 0.498784
327 1 0.482237 0.481136 0.50545
272 1 0.482131 0.480955 0.486779
343 1 0.517445 0.481592 0.506803
403 1 0.518946 0.483278 0.513475
344 1 0.51901 0.483372 0.494791
355 2 0.507229 0.49477 0.499432
354 2 0.505924 0.507162 0.51104
353 2 0.498486 0.50963 0.493549
338 2 0.494611 0.492304 0.509767
296 2 0.508799 0.50104 0.483188
333 2 0.492667 0.493981 0.490705
417 1 0.525275 0.502552 0.517407
439 1 0.523832 0.509308 0.518752
360 1 0.52505 0.504853 0.505479
386 1 0.523022 0.511469 0.506806
437 1 0.521924 0.513504 0.513452
358 1 0.524818 0.507144 0.493557
385 1 0.522054 0.513524 0.494843
384 1 0.520743 0.515459 0.50148
321 1 0.524622 0.509689 0.4819
319 1 0.520907 0.515551 0.482867
405 1 0.522696 0.489097 0.514776
345 1 0.520431 0.485122 0.501463
347 1 0.523674 0.491226 0.502778
357 1 0.524351 0.493398 0.509438
362 1 0.525346 0.500242 0.510777
286 1 0.520322 0.485276 0.482795
346 1 0.521657 0.487169 0.489451
356 1 0.524509 0.493486 0.490764
359 1 0.524993 0.495672 0.497456
361 1 0.525423 0.502568 0.498845
299 1 0.52569 0.497986 0.485423
298 1 0.525627 0.504944 0.486943
382 1 0.516033 0.520526 0.502789
381 1 0.514162 0.521903 0.509443
378 1 0.50794 0.52493 0.510738
431 1 0.505665 0.525501 0.517387
429 1 0.498765 0.52612 0.518649
380 1 0.514194 0.521855 0.490778
379 1 0.512235 0.523087 0.497432
377 1 0.50578 0.525578 0.498731
376 1 0.503487 0.525967 0.505379
374 1 0.496572 0.525908 0.506666
426 1 0.494252 0.525476 0.513294
424 1 0.487779 0.523016 0.514572
315 1 0.510205 0.524056 0.485398
313 1 0.503565 0.525996 0.48671
375 1 0.501256 0.52622 0.493371
373 1 0.494372 0.525526 0.494687
372 1 0.492134 0.524832 0.501319
370 1 0.485968 0.521677 0.502609
369 1 0.484047 0.520346 0.50924
311 1 0.498988 0.526258 0.48136
308 1 0.492204 0.524963 0.482733
371 1 0.49005 0.524016 0.489357
368 1 0.48424 0.520241 0.490658
392 1 0.487616 0.476602 0.525319
394 1 0.493946 0.473762 0.526461
396 1 0.498778 0.473359 0.521386
397 1 0.505691 0.474263 0.522887
445 1 0.484416 0.479498 0.549589
447 1 0.489727 0.475158 0.551186
501 1 0.492276 0.474454 0.557697
503 1 0.499183 0.473189 0.558928
390 1 0.483972 0.479293 0.530752
446 1 0.485031 0.477126 0.5374
448 1 0.488019 0.470849 0.538458
449 1 0.502396 0.47164 0.547006
451 1 0.504006 0.473219 0.553682
506 1 0.510307 0.476143 0.554987
450 1 0.504595 0.472228 0.53508
452 1 0.506603 0.473465 0.541693
453 1 0.512301 0.477362 0.542972
454 1 0.514157 0.478777 0.549643
398 1 0.508155 0.474776 0.529559
400 1 0.513926 0.478641 0.530866
410 1 0.475187 0.50484 0.525393
407 1 0.475286 0.49791 0.526794
411 1 0.476015 0.493333 0.521476
387 1 0.478614 0.486923 0.522821
529 1 0.477679 0.513989 0.554805
474 1 0.475452 0.511589 0.542843
473 1 0.475836 0.509539 0.549538
462 1 0.475427 0.502628 0.550834
515 1 0.475587 0.500329 0.557475
519 1 0.476668 0.493511 0.558805
421 1 0.478777 0.515822 0.529119
419 1 0.47595 0.509473 0.530693
464 1 0.475237 0.507168 0.537389
460 1 0.475313 0.500257 0.538776
461 1 0.475697 0.498018 0.545468
440 1 0.477435 0.491313 0.546816
442 1 0.47824 0.489187 0.553485
463 1 0.475876 0.495664 0.533467
441 1 0.478004 0.489066 0.534842
443 1 0.479191 0.487015 0.541505
388 1 0.479961 0.484957 0.52947
414 2 0.505242 0.493074 0.523968
428 2 0.492273 0.505645 0.520914
455 1 0.515761 0.480191 0.537534
436 1 0.519122 0.517144 0.526783
422 1 0.480427 0.517412 0.522488
402 1 0.517331 0.481669 0.52549
489 1 0.518926 0.516719 0.545525
488 1 0.517452 0.51866 0.533464
476 1 0.481449 0.519958 0.553692
475 1 0.481606 0.519821 0.53414
495 1 0.481631 0.483184 0.554878
444 1 0.482719 0.481016 0.542856
456 1 0.519229 0.48354 0.550964
413 2 0.492082 0.497854 0.536585
465 2 0.499441 0.489234 0.549488
522 2 0.495001 0.508934 0.553095
467 2 0.509817 0.502228 0.547293
466 2 0.503936 0.508756 0.53241
543 1 0.51545 0.519466 0.558938
438 1 0.522926 0.511397 0.525397
404 1 0.52158 0.487146 0.52678
406 1 0.523609 0.49123 0.521418
416 1 0.525255 0.497946 0.522708
469 1 0.526223 0.507629 0.549118
491 1 0.522217 0.513272 0.550799
545 1 0.520737 0.515035 0.557541
418 1 0.525532 0.500252 0.529326
415 1 0.524607 0.50709 0.530683
492 1 0.524021 0.509259 0.537343
490 1 0.520483 0.51517 0.538799
512 1 0.520808 0.484991 0.557747
514 1 0.524835 0.490485 0.559475
457 1 0.520388 0.485338 0.538812
458 1 0.521861 0.487225 0.545456
468 1 0.525172 0.493367 0.546413
525 1 0.530224 0.504265 0.553784
459 1 0.522775 0.48921 0.533416
470 1 0.525231 0.495709 0.53465
472 1 0.526069 0.498012 0.541231
471 1 0.525931 0.504991 0.542578
434 1 0.515879 0.520415 0.521453
433 1 0.509962 0.523997 0.522765
427 1 0.496398 0.525977 0.525272
425 1 0.489715 0.524225 0.526563
423 1 0.485687 0.521957 0.521207
487 1 0.513568 0.521142 0.546884
486 1 0.511668 0.522139 0.553657
539 1 0.505633 0.525281 0.555306
485 1 0.511877 0.522732 0.534768
484 1 0.50976 0.523638 0.541407
483 1 0.503282 0.526129 0.54235
481 1 0.492983 0.527219 0.551123
534 1 0.491123 0.526262 0.557874
533 1 0.484821 0.523089 0.559077
432 1 0.507727 0.524766 0.52941
430 1 0.50091 0.526195 0.530651
482 1 0.498497 0.526446 0.537263
480 1 0.491595 0.525417 0.538754
479 1 0.48926 0.52504 0.545561
477 1 0.483378 0.521631 0.547176
478 1 0.487503 0.523508 0.533213
563 1 0.516628 0.47893 0.593626
562 1 0.514602 0.477783 0.586999
561 1 0.508267 0.474986 0.585738
614 1 0.512697 0.476462 0.598881
612 1 0.505969 0.474668 0.597859
559 1 0.503748 0.474218 0.591149
557 1 0.496861 0.474342 0.589758
498 1 0.486379 0.478384 0.574923
554 1 0.488267 0.477204 0.581595
556 1 0.494649 0.474633 0.583045
499 1 0.488288 0.476854 0.562981
500 1 0.490319 0.47592 0.569644
502 1 0.496907 0.473908 0.571012
558 1 0.499179 0.473823 0.577703
560 1 0.506051 0.474389 0.579051
504 1 0.501459 0.47358 0.565629
505 1 0.508202 0.475084 0.566991
507 1 0.510373 0.475855 0.573674
509 1 0.516274 0.47943 0.575018
508 1 0.51228 0.477245 0.561653
552 1 0.484463 0.479877 0.586847
553 1 0.486165 0.478459 0.593518
555 1 0.492354 0.475479 0.595061
531 1 0.478756 0.515905 0.566837
530 1 0.477774 0.513835 0.573487
520 1 0.476011 0.507175 0.5748
572 1 0.475676 0.504938 0.581459
570 1 0.475519 0.498022 0.582749
528 1 0.477043 0.511701 0.561461
518 1 0.475649 0.504929 0.562792
516 1 0.475508 0.502623 0.569448
517 1 0.475979 0.495735 0.570774
573 1 0.476363 0.493486 0.577424
550 1 0.47884 0.487042 0.578776
493 1 0.477225 0.491289 0.565462
634 1 0.477547 0.511441 0.598809
581 1 0.479198 0.515914 0.585536
580 1 0.476696 0.509434 0.58682
574 1 0.476135 0.50713 0.59344
569 1 0.47526 0.500267 0.594716
571 1 0.475691 0.495707 0.589372
549 1 0.477569 0.489059 0.590697
602 1 0.478352 0.486901 0.59733
551 1 0.479904 0.485044 0.585422
582 1 0.479545 0.518035 0.578833
523 2 0.509321 0.501581 0.565177
494 1 0.480203 0.485057 0.566837
596 1 0.518817 0.516365 0.582992
544 1 0.517199 0.51796 0.570994
496 1 0.481434 0.483182 0.573502
497 1 0.483054 0.481385 0.561555
564 1 0.518112 0.480774 0.581684
510 1 0.517761 0.481423 0.563021
511 1 0.519486 0.482781 0.569738
595 1 0.517391 0.518272 0.589614
583 1 0.48232 0.519493 0.590854
637 1 0.48104 0.51744 0.597519
604 1 0.482396 0.48128 0.598696
623 2 0.49435 0.49369 0.594503
521 2 0.494406 0.493721 0.569244
575 2 0.507628 0.495498 0.583338
588 2 0.495647 0.508954 0.58603
594 1 0.515497 0.519546 0.57763
629 1 0.524198 0.504032 0.599253
631 1 0.524795 0.497162 0.59793
577 1 0.524916 0.494925 0.591236
567 1 0.52333 0.488221 0.589771
565 1 0.521357 0.483974 0.594989
526 1 0.526073 0.501911 0.573949
548 1 0.524001 0.508637 0.575059
598 1 0.522655 0.510608 0.581736
547 1 0.523728 0.511781 0.56302
546 1 0.521992 0.512948 0.569732
566 1 0.522309 0.486246 0.583114
513 1 0.523411 0.48841 0.571271
568 1 0.524259 0.490519 0.577911
578 1 0.525689 0.497298 0.579287
524 1 0.525526 0.492576 0.5661
527 1 0.526932 0.499292 0.567479
579 1 0.52532 0.499555 0.585936
576 1 0.524098 0.506364 0.587208
599 1 0.523108 0.508508 0.593881
597 1 0.520072 0.514751 0.595174
592 1 0.509797 0.523506 0.578914
542 1 0.513573 0.520828 0.565631
541 1 0.507492 0.524214 0.567009
540 1 0.505448 0.525125 0.573659
537 1 0.498787 0.526832 0.575095
587 1 0.496606 0.526878 0.581802
585 1 0.489814 0.525829 0.583237
538 1 0.503068 0.525857 0.561771
536 1 0.496109 0.526954 0.563024
535 1 0.494202 0.527405 0.569795
532 1 0.482574 0.521632 0.565565
593 1 0.512359 0.523032 0.590571
645 1 0.503154 0.527822 0.599228
591 1 0.507931 0.524948 0.585528
590 1 0.501237 0.526724 0.587103
589 1 0.498791 0.527108 0.593767
586 1 0.492037 0.525538 0.595084
584 1 0.48769 0.524054 0.58972
615 1 0.51186 0.476986 0.618684
613 1 0.509989 0.475781 0.612045
611 1 0.503312 0.474658 0.610177
658 1 0.483995 0.47736 0.63093
660 1 0.484939 0.475772 0.637708
610 1 0.501346 0.474395 0.603315
608 1 0.494436 0.47497 0.601812
659 1 0.487101 0.475509 0.619118
661 1 0.488781 0.475332 0.625952
662 1 0.495674 0.474343 0.627427
663 1 0.497992 0.47428 0.634069
666 1 0.504708 0.475379 0.635655
605 1 0.483724 0.479474 0.605328
606 1 0.489744 0.476083 0.607019
607 1 0.491693 0.475074 0.613789
609 1 0.49851 0.474483 0.615377
664 1 0.500493 0.474458 0.622202
667 1 0.507274 0.475712 0.623831
668 1 0.509264 0.476766 0.630515
688 1 0.479367 0.515255 0.622849
687 1 0.477937 0.513354 0.629482
681 1 0.475325 0.506943 0.630749
679 1 0.474705 0.504641 0.637366
675 1 0.474436 0.497759 0.638714
636 1 0.478409 0.513343 0.610833
635 1 0.477232 0.511252 0.617459
678 1 0.475162 0.504641 0.618735
676 1 0.474713 0.502398 0.6254
677 1 0.474799 0.495493 0.626756
680 1 0.475033 0.493181 0.633428
655 1 0.476878 0.486526 0.634856
633 1 0.476636 0.5092 0.605439
621 1 0.47513 0.502435 0.606731
619 1 0.474839 0.500051 0.613379
622 1 0.475357 0.493119 0.614707
654 1 0.475608 0.490941 0.621465
656 1 0.477559 0.48441 0.623135
620 1 0.475167 0.497912 0.601345
600 1 0.476366 0.491113 0.602625
601 1 0.476799 0.48883 0.609239
657 1 0.479044 0.482317 0.629635
603 1 0.479915 0.482645 0.610257
669 1 0.515348 0.480034 0.632027
672 1 0.519072 0.482765 0.626656
670 1 0.517601 0.480823 0.620072
704 1 0.519119 0.516835 0.639139
703 1 0.51729 0.518322 0.627218
651 1 0.518862 0.516613 0.601939
689 1 0.48053 0.517116 0.634832
638 1 0.482549 0.518893 0.609586
671 1 0.516813 0.481239 0.638829
624 2 0.497699 0.508468 0.606905
665 2 0.502898 0.494147 0.635128
682 2 0.491988 0.498162 0.620879
625 2 0.506716 0.492367 0.607471
702 1 0.515698 0.519962 0.633867
632 1 0.524602 0.501657 0.611294
628 1 0.524619 0.494706 0.610012
626 1 0.524279 0.492539 0.603244
617 1 0.522636 0.485912 0.601589
686 1 0.525583 0.499653 0.623395
683 1 0.524778 0.4927 0.622191
618 1 0.523838 0.490355 0.615587
616 1 0.520873 0.48402 0.614762
684 1 0.528351 0.498581 0.635419
674 1 0.523251 0.488362 0.627557
685 1 0.526164 0.502384 0.629939
708 1 0.523909 0.508941 0.631173
707 1 0.523249 0.511318 0.63777
630 1 0.524515 0.504039 0.617946
706 1 0.522347 0.510637 0.619223
705 1 0.52145 0.512809 0.625852
627 1 0.523637 0.506172 0.60594
653 1 0.521143 0.512609 0.60726
652 1 0.520047 0.514655 0.613919
700 1 0.510017 0.52387 0.635194
650 1 0.515715 0.520075 0.615303
701 1 0.513887 0.521458 0.621932
699 1 0.507882 0.524876 0.623237
698 1 0.505677 0.525525 0.629903
697 1 0.498775 0.52615 0.631175
696 1 0.496362 0.525806 0.637777
693 1 0.48979 0.523668 0.639006
649 1 0.514678 0.522004 0.603569
648 1 0.512324 0.52325 0.610031
647 1 0.50585 0.526005 0.611182
646 1 0.503505 0.526132 0.617851
695 1 0.496582 0.526018 0.619145
694 1 0.494286 0.525455 0.625778
692 1 0.487858 0.522852 0.627012
691 1 0.485819 0.521558 0.633624
644 1 0.50117 0.527052 0.605912
643 1 0.494347 0.525833 0.607155
642 1 0.49216 0.524945 0.613771
640 1 0.486014 0.521767 0.614997
690 1 0.484107 0.520314 0.621617
641 1 0.490008 0.524435 0.601747
639 1 0.484232 0.520612 0.602958
673 1 0.522575 0.484418 0.641255
ITEM: TIMESTEP
1000
ITEM: NUMBER OF ATOMS
708
ITEM: BOX BOUNDS pp pp pp
-1.0000000000000000e+02 1.0000000000000000e+02
-1.0000000000000000e+02 1.0000000000000000e+02
-1.0000000000000000e+02 1.0000000000000000e+02
ITEM: ATOMS id type xs ys zs
14 1 0.50797 0.478447 0.360122
59 1 0.487959 0.477182 0.393896
60 1 0.489679 0.477542 0.380507
64 1 0.49941 0.472332 0.389423
65 1 0.501009 0.472519 0.396205
8 1 0.49188 0.476865 0.368724
9 1 0.494332 0.476085 0.375393
11 1 0.501261 0.474891 0.377396
66 1 0.503866 0.473802 0.384002
67 1 0.510703 0.474643 0.384928
68 1 0.514099 0.473443 0.391138
10 1 0.496853 0.477035 0.36395
12 1 0.503341 0.47692 0.365516
13 1 0.505926 0.475449 0.37198
15 1 0.512622 0.476462 0.372838
17 1 0.514733 0.47693 0.379619
16 1 0.514764 0.478228 0.361407
18 1 0.517327 0.476703 0.367701
69 1 0.520693 0.480525 0.3812
87 1 0.477746 0.515371 0.397956
86 1 0.476886 0.51279 0.386003
85 1 0.475097 0.511291 0.392924
76 1 0.473675 0.504128 0.394185
35 1 0.475632 0.509882 0.374273
34 1 0.474355 0.508678 0.380956
73 1 0.472475 0.499074 0.389463
77 1 0.474342 0.492423 0.390726
54 1 0.476401 0.490883 0.397096
56 1 0.479763 0.484919 0.398288
36 1 0.477999 0.514052 0.361288
33 1 0.474893 0.508339 0.362434
24 1 0.472929 0.506071 0.368665
21 1 0.469666 0.499741 0.369258
22 1 0.465928 0.497745 0.374893
55 1 0.475809 0.488448 0.385407
23 1 0.471042 0.494826 0.364428
1 1 0.474913 0.489193 0.365431
2 1 0.476619 0.486716 0.371768
3 1 0.478668 0.487259 0.360136
37 1 0.480018 0.515311 0.373012
6 1 0.483597 0.480663 0.379876
5 1 0.484392 0.483465 0.36121
7 1 0.486103 0.480607 0.367588
50 1 0.518815 0.519163 0.365369
88 1 0.482025 0.517276 0.384613
38 1 0.48092 0.517621 0.366566
57 1 0.480499 0.483224 0.385865
58 1 0.482812 0.481493 0.392616
4 1 0.48187 0.482489 0.372928
25 2 0.506155 0.496673 0.362413
42 2 0.495272 0.503278 0.352397
79 2 0.498963 0.490081 0.387656
62 2 0.493475 0.495168 0.371695
78 2 0.506747 0.50777 0.382467
89 1 0.483453 0.519354 0.396427
39 1 0.483825 0.518446 0.378007
51 1 0.521953 0.517418 0.376847
82 1 0.524372 0.504044 0.392663
105 1 0.52219 0.510697 0.394038
28 1 0.524616 0.506146 0.380709
103 1 0.522876 0.512952 0.382103
102 1 0.521506 0.515109 0.388511
32 1 0.525376 0.499701 0.360875
27 1 0.524986 0.506501 0.36222
53 1 0.523819 0.508304 0.3689
52 1 0.52225 0.51532 0.370231
72 1 0.524588 0.489986 0.390239
80 1 0.524752 0.492628 0.396731
84 1 0.52473 0.499569 0.398077
19 1 0.523882 0.485055 0.376838
26 1 0.525046 0.491892 0.378136
81 1 0.524736 0.494291 0.384577
83 1 0.525052 0.501402 0.386124
20 1 0.526248 0.488498 0.364039
29 1 0.525185 0.495056 0.365815
31 1 0.524987 0.496571 0.372893
30 1 0.524881 0.503527 0.374214
100 1 0.513868 0.522491 0.39726
98 1 0.50738 0.524843 0.398
99 1 0.51106 0.529963 0.384707
97 1 0.505186 0.526168 0.385881
96 1 0.502923 0.525443 0.392527
95 1 0.4961 0.524076 0.393696
49 1 0.512562 0.522746 0.366479
48 1 0.509853 0.523719 0.372797
46 1 0.503107 0.525037 0.37405
45 1 0.500892 0.524897 0.38037
93 1 0.494404 0.523431 0.381899
92 1 0.492129 0.522738 0.388541
90 1 0.485701 0.520006 0.389878
47 1 0.508178 0.52432 0.361172
44 1 0.501074 0.524579 0.361838
43 1 0.498917 0.524502 0.36865
41 1 0.492503 0.523111 0.370235
40 1 0.48976 0.522243 0.376653
111 1 0.485654 0.477833 0.405628
112 1 0.494852 0.473592 0.413818
61 1 0.490002 0.475934 0.400306
63 1 0.496733 0.473861 0.401767
114 1 0.499344 0.473672 0.408322
116 1 0.506036 0.474335 0.409837
118 1 0.510709 0.476285 0.404834
120 1 0.517105 0.478832 0.406748
162 1 0.484501 0.479146 0.437401
164 1 0.489887 0.474857 0.438831
110 1 0.484319 0.479453 0.418504
163 1 0.486051 0.478047 0.425408
165 1 0.491777 0.473808 0.426126
167 1 0.493384 0.472415 0.432999
113 1 0.496442 0.472564 0.420743
115 1 0.503265 0.473023 0.422431
169 1 0.506252 0.473389 0.428832
171 1 0.512511 0.476611 0.430472
172 1 0.513845 0.477732 0.437263
117 1 0.507388 0.47494 0.416994
119 1 0.51364 0.478186 0.418741
173 1 0.515992 0.479904 0.425234
121 1 0.518359 0.479322 0.413833
138 1 0.475524 0.514245 0.404554
126 1 0.473673 0.504397 0.413877
124 1 0.474792 0.497662 0.414768
74 1 0.473965 0.502093 0.400803
75 1 0.475454 0.495398 0.402343
127 1 0.475848 0.493082 0.409
107 1 0.478454 0.486702 0.410424
194 1 0.476591 0.510824 0.430601
193 1 0.476027 0.508899 0.437246
181 1 0.475066 0.502163 0.438756
139 1 0.478068 0.515121 0.417124
137 1 0.475059 0.508905 0.418733
182 1 0.475176 0.506633 0.425217
178 1 0.475474 0.499913 0.427056
180 1 0.475978 0.497605 0.433592
157 1 0.477334 0.490793 0.435003
125 1 0.475633 0.495334 0.421502
106 1 0.477752 0.488807 0.422602
159 1 0.478662 0.486633 0.429295
108 1 0.479679 0.484806 0.417133
140 1 0.479145 0.516839 0.40993
154 1 0.5185 0.517249 0.414484
101 1 0.51699 0.518625 0.402393
109 1 0.480851 0.482863 0.404872
209 1 0.518731 0.517295 0.433023
153 1 0.516812 0.518673 0.421143
141 1 0.481598 0.518405 0.42253
196 1 0.480452 0.516671 0.429423
161 1 0.482783 0.481085 0.430824
174 1 0.518754 0.482783 0.438548
186 2 0.509244 0.497812 0.423935
183 2 0.491223 0.499511 0.433931
131 2 0.509647 0.499437 0.400978
128 2 0.491027 0.505171 0.39925
130 2 0.497696 0.508789 0.418278
129 2 0.49681 0.492321 0.412972
70 1 0.52119 0.482055 0.401781
135 1 0.524475 0.502252 0.404791
156 1 0.522928 0.509068 0.406163
155 1 0.522107 0.511386 0.412726
104 1 0.520842 0.513009 0.400797
71 1 0.524292 0.488572 0.402318
123 1 0.525571 0.49112 0.408842
134 1 0.525196 0.497929 0.410436
188 1 0.522977 0.507084 0.436864
212 1 0.521239 0.513676 0.438415
136 1 0.525315 0.500124 0.417112
132 1 0.523815 0.507067 0.418122
213 1 0.523226 0.50938 0.424795
210 1 0.520134 0.515472 0.42628
175 1 0.52068 0.48496 0.426579
177 1 0.521546 0.486622 0.433548
187 1 0.523565 0.49339 0.434556
122 1 0.522653 0.489351 0.421819
133 1 0.525074 0.495759 0.422754
191 1 0.524945 0.49811 0.429402
190 1 0.52428 0.504995 0.430498
152 1 0.515244 0.520162 0.408968
150 1 0.509437 0.523686 0.410201
148 1 0.50497 0.525055 0.404505
146 1 0.498185 0.525162 0.405906
145 1 0.495859 0.524949 0.412469
144 1 0.489248 0.522939 0.413916
94 1 0.493834 0.523715 0.400553
91 1 0.48729 0.521735 0.401896
142 1 0.484996 0.521044 0.40864
208 1 0.51324 0.521792 0.434051
151 1 0.511609 0.523119 0.422233
207 1 0.509046 0.52415 0.428902
205 1 0.502645 0.526581 0.429953
204 1 0.500376 0.527535 0.43633
202 1 0.493492 0.525801 0.438193
149 1 0.507177 0.524691 0.416895
147 1 0.500281 0.525613 0.417945
203 1 0.498012 0.526695 0.424593
200 1 0.49131 0.525274 0.425689
199 1 0.489297 0.523956 0.432761
198 1 0.483954 0.519793 0.434524
143 1 0.487472 0.52236 0.420441
219 1 0.486223 0.477382 0.462659
275 1 0.487675 0.476264 0.469382
277 1 0.494057 0.474027 0.47092
220 1 0.488209 0.475852 0.450838